   This copy of MOLCAS is licensed to Claudia Filippi
                                                                       
                             ...                                       
                             ...          ++++  +++++  ++++++ +   ++   
                 ...        .....        ++  ++ ++  ++ ++     ++  ++   
                .....       .. ..        ++  ++ ++  ++ ++     +++ ++   
                .. ..      ..   ..       ++  ++ +++++  ++++   ++++++   
                ..  ..     ..   ..       ++  ++ ++     ++     ++ +++   
               ..   .  ....  .  ..       ++  ++ ++     ++     ++  ++   
               ..  .   ...   .. ..        ++++  ++     ++++++ ++   +   
               .  ...   ..  ...  ..                                    
            ...   ...   .   ...    ..                                  
        .......  .....     .....   ......                              
     .........   ...............   .........                           
    ..........   ..           ..   ...    ...                          
    ..........       ..**...        .     ...                          
    ..........    ....**.......     .  .  ...                          
    ..........   **..***********    .  .  ...                          
    .........   ..***********....   .  .  ...    ....    ..    ....    
    .........   ...***********...   .  .  ...   ..  ..  ....  ..   .   
    .........   ....***********..      .  ...   .      ..  .. ..       
    ........     ***********..**       .  ...   .      ..  ..  ....    
    ......        .......**....        .  ...   .      ......     ..   
    ...     ...      ...**..     .     .   ..   ..  .. ..  .. .   ..   
          .........            ....   ...        ....  .    .  ....    
     .......................................                           
        .................................                              
            .........................                                  
               ...................        version:                  
                   ...........                                         
                       ...                tag:                      
                                               $Px$                    
                                                                       
 OpenMolcas is free software; you can redistribute it and/or modify it 
 under the terms of the GNU Lesser General Public License version 2.1. 
 OpenMolcas is distributed in the hope that it will be useful, but it  
 is provided "as is" and without any express or implied warranties.    
 For more details see the full text of the license in the file         
 LICENSE or in <http://www.gnu.org/licenses/>.                         
                                                                       
                 Copyright (C) The OpenMolcas Authors                  
           For the author list and the recommended citation,           
                   consult the file CONTRIBUTORS.md                    

configuration info
------------------
C Compiler ID: Intel
C flags: -std=gnu99
Fortran Compiler ID: Intel
Fortran flags: -fpp -i8 -r8 -heap-arrays
Definitions: _MOLCAS_;_HAVE_EXTRA_;_I8_;_LINUX_;_MOLCAS_MPP_;SCALAPACK;_MKL_
Parallel: ON (GA=OFF)


   -------------------------------------------------------------------
  |                                                                   
  |   Project         = thio-c1-sa5-cas87
  |   Submitted from  = /home/shinde/test-molcas/molcas-test9-thio-sa5
  |   Scratch area    = /home/shinde/test-molcas/molcas-test9-thio-sa5/thio-c1-sa5-cas87
  |   Save outputs to = /home/shinde/test-molcas/molcas-test9-thio-sa5
  |   Molcas          = /software/molcas84/build
  |   Parallel        = No
  |                                                                   
  |   Scratch area is NOT empty
  |                                                                   
  |      MOLCAS_PRINT = 6                   
  |                                                                   
   -------------------------------------------------------------------
--- Start Module: auto at Thu Dec 16 08:52:33 2021 

++ ---------   Input file   ---------

 > export MOLCAS_MOLDEN=ON
  &SEWARD &END
    BASLIB 
    /software/molcas84/basis_library/BFD
    CHOlesky
    Basis set
    C.ECP.BFD.11s11p1d.3s3p1d.. 
    C1  0.000000   0.711400   1.266700 Angstrom
    C2  0.000000  -0.711400   1.266700 Angstrom
    C3  0.000000  -1.238000   0.009600 Angstrom
    C4  0.000000   1.238000   0.009600 Angstrom
    Cartesian d
    End of Basis
    Basis set
    S.ECP.BFD.11s11p1d.3s3p1d..
    S5  0.000000   0.000000  -1.192600 Angstrom
    Cartesian d
    End of Basis
    Basis set
    H.ECP.BFD.5s1p.3s1p..
    H6  0.000000   1.314300   2.162600 Angstrom
    H7  0.000000  -1.314300   2.162600 Angstrom
    H8  0.000000   2.274700  -0.280300 Angstrom
    H9  0.000000  -2.274700  -0.280300 Angstrom
    Cartesian d
    End of Basis
  &RASSCF
    Title
    CASSCF of Thiophene_c2v_ground state in symmetry a1.
    FileOrb
    thio-c1-sa5-cas109.RasOrb
    Nactel
      8 0 0
    Ras2
      7
    Inactive 
      9
    Spin
      1
    Charge
      0
    Symmetry
      1
    CIroot
      5 5 1
    PRSD
    Prwf
      0.000
    Orblisting
    all
  &RASSI &END
 >>EXPORT MOLCAS_PRINT=4
  &CASPT2
    Prwf
      0.
    Multistate
      5 1 2 3 4 5
    Imagshift
      0.1

-- ----------------------------------

--- Start Module: seward at Thu Dec 16 08:52:33 2021 
 
()()()()()()()()()()()()()()()()()()()()()()()()()()()()()()()()()()()()()()()()()()()()()()()()()()

                                              &SEWARD

                       only a single process is used, running in SERIAL mode
                       available to each process: 2.0 GB of memory, 1 thread?
()()()()()()()()()()()()()()()()()()()()()()()()()()()()()()()()()()()()()()()()()()()()()()()()()()
 
 
 
 Basis Set     1 Label: C.ECP.BFD.11S11P1D.3S3P1D..
 Basis set is read from library:/software/molcas84/basis_library/BFD 
 basistype.tbl is not found
 
 
 Basis Set     2 Label: S.ECP.BFD.11S11P1D.3S3P1D..
 Basis set is read from library:/software/molcas84/basis_library/BFD 
 basistype.tbl is not found
 
 
 Basis Set     3 Label: H.ECP.BFD.5S1P.3S1P..
 Basis set is read from library:/software/molcas84/basis_library/BFD 
 basistype.tbl is not found
 GuessOrb option turned off!
               SEWARD will generate:
                  Multipole Moment integrals up to order  2
                  Kinetic Energy integrals
                  Nuclear Attraction integrals (point charge)
                  One-Electron Hamiltonian integrals modified with ECP contributions
                  Velocity integrals
                  Pseudo Potential integrals
                  Cholesky decomposed two-electron repulsion integrals
                   - CD Threshold:   0.10E-03
 
                   Integrals are discarded if absolute value <: 0.10E-39
                   Integral cutoff threshold is set to       <: 0.10E-39
 
++    Symmetry information:
      ---------------------
 
                    Character Table for C1 
 
                             E  
                    a        1  x, y, xy, Rz, z, xz, Ry, yz, Rx, I
--
 
 
++    Basis set information:
      ----------------------
 
 
      Basis set label: C.ECP.BFD.11S11P1D.3S3P1D......
 
      Electronic valence basis set:
      ------------------
      Associated Effective Charge   4.000000 au
      Associated Actual Charge      6.000000 au
      Nuclear Model: Point charge
 
      Shell  nPrim  nBasis  Cartesian Spherical Contaminant
         s      11       3        X                  
         p      11       3        X                  
         d       1       1        X                  
 
      Pseudo Potential specification:
      =======================================
 
      Potential  nTerms    
           H       3
         s-H       1
 
      Effective Core Potential specification:
      =======================================
 
 
      Basis set label: S.ECP.BFD.11S11P1D.3S3P1D......
 
      Electronic valence basis set:
      ------------------
      Associated Effective Charge   6.000000 au
      Associated Actual Charge     16.000000 au
      Nuclear Model: Point charge
 
      Shell  nPrim  nBasis  Cartesian Spherical Contaminant
         s      11       3        X                  
         p      11       3        X                  
         d       1       1        X                  
 
      Pseudo Potential specification:
      =======================================
 
      Potential  nTerms    
           H       3
         s-H       1
         p-H       1
 
      Effective Core Potential specification:
      =======================================
 
 
      Basis set label: H.ECP.BFD.5S1P.3S1P......
 
      Electronic valence basis set:
      ------------------
      Associated Effective Charge   1.000000 au
      Associated Actual Charge      1.000000 au
      Nuclear Model: Point charge
 
      Shell  nPrim  nBasis  Cartesian Spherical Contaminant
         s       5       3        X                  
         p       1       1        X                  
 
      Pseudo Potential specification:
      =======================================
 
      Potential  nTerms    
           H       3
 
      Effective Core Potential specification:
      =======================================
--
 
 
++    Molecular structure info:
      -------------------------
 
                    ************************************************ 
                    **** Cartesian Coordinates / Bohr, Angstrom **** 
                    ************************************************ 
 
     Center  Label                x              y              z                     x              y              z
        1      C1               0.000000       1.344351       2.393716              0.000000       0.711400       1.266700
        2      C2               0.000000      -1.344351       2.393716              0.000000      -0.711400       1.266700
        3      C3               0.000000      -2.339481       0.018141              0.000000      -1.238000       0.009600
        4      C4               0.000000       2.339481       0.018141              0.000000       1.238000       0.009600
        5      S5               0.000000       0.000000      -2.253687              0.000000       0.000000      -1.192600
        6      H6               0.000000       2.483667       4.086722              0.000000       1.314300       2.162600
        7      H7               0.000000      -2.483667       4.086722              0.000000      -1.314300       2.162600
        8      H8               0.000000       4.298560      -0.529690              0.000000       2.274700      -0.280300
        9      H9               0.000000      -4.298560      -0.529690              0.000000      -2.274700      -0.280300
 
                    *************************************** 
                    *    InterNuclear Distances / Bohr    * 
                    *************************************** 
 
               1 C1            2 C2            3 C3            4 C4            5 S5            6 H6    
    1 C1       0.000000
    2 C2       2.688702        0.000000
    3 C3       4.383375        2.575585        0.000000
    4 C4       2.575585        4.383375        4.678962        0.000000
    5 S5       4.837937        4.837937        3.261039        3.261039        0.000000
    6 H6       2.040664        4.185689        6.310000        4.071134        6.809507        0.000000
    7 H7       4.185689        2.040664        4.071134        6.310000        6.809507        4.967334
    8 H8       4.156159        6.355214        6.660609        2.034235        4.631391        4.960352
    9 H9       6.355214        4.156159        2.034235        6.660609        4.631391        8.204259
 
               7 H7            8 H8            9 H9    
    7 H7       0.000000
    8 H8       8.204259        0.000000
    9 H9       4.960352        8.597120        0.000000
 
                    ******************************************* 
                    *    InterNuclear Distances / Angstrom    * 
                    ******************************************* 
 
               1 C1            2 C2            3 C3            4 C4            5 S5            6 H6    
    1 C1       0.000000
    2 C2       1.422800        0.000000
    3 C3       2.319582        1.362941        0.000000
    4 C4       1.362941        2.319582        2.476000        0.000000
    5 S5       2.560126        2.560126        1.725668        1.725668        0.000000
    6 H6       1.079873        2.214971        3.339108        2.154352        3.603436        0.000000
    7 H7       2.214971        1.079873        2.154352        3.339108        3.603436        2.628600
    8 H8       2.199344        3.363035        3.524642        1.076471        2.450827        2.624905
    9 H9       3.363035        2.199344        1.076471        3.524642        2.450827        4.341507
 
               7 H7            8 H8            9 H9    
    7 H7       0.000000
    8 H8       4.341507        0.000000
    9 H9       2.624905        4.549400        0.000000
 
                    ************************************** 
                    *    Valence Bond Angles / Degree    * 
                    ************************************** 
                          Atom centers                 Phi
                      2 C2       1 C1       4 C4       112.73
                      2 C2       1 C1       6 H6       123.94
                      4 C4       1 C1       6 H6       123.33
                      1 C1       2 C2       3 C3       112.73
                      1 C1       2 C2       7 H7       123.94
                      3 C3       2 C2       7 H7       123.33
                      2 C2       3 C3       9 H9       128.35
                      1 C1       4 C4       8 H8       128.35
 
           ***************************************************************
           *              Valence Dihedral Angles / Degree               *
           ***************************************************************
                    Atom centers                       Phi1     Phi2     Theta 
           4 C4       1 C1       2 C2       7 H7        112.73   123.94  -180.00
           6 H6       1 C1       2 C2       7 H7        123.94   123.94     0.00
           2 C2       1 C1       4 C4       8 H8        112.73   128.35  -180.00
           6 H6       1 C1       4 C4       8 H8        123.33   128.35     0.00
           3 C3       2 C2       1 C1       4 C4        112.73   112.73     0.00
           3 C3       2 C2       1 C1       6 H6        112.73   123.94  -180.00
           1 C1       2 C2       3 C3       9 H9        112.73   128.35  -180.00
           7 H7       2 C2       3 C3       9 H9        123.33   128.35     0.00
--
 
 
            Nuclear Potential Energy             76.43562880 au
 
 
      Basis set specifications :
      Symmetry species         a  
      Basis functions          114
 
      Cholesky vectors         471
 
 
**************************************************
MEMORY WARNING: use of FLUSH operation deprecated!
please contact the developer of this module and
ask him/her to fix this!
**************************************************
**************************************************
MEMORY WARNING: use of FLUSH operation deprecated!
please contact the developer of this module and
ask him/her to fix this!
**************************************************
**************************************************
MEMORY WARNING: use of FLUSH operation deprecated!
please contact the developer of this module and
ask him/her to fix this!
**************************************************
**************************************************
MEMORY WARNING: use of FLUSH operation deprecated!
please contact the developer of this module and
ask him/her to fix this!
**************************************************
--- Stop Module:  seward at Thu Dec 16 08:52:40 2021 /rc=0 ---
--- Module seward spent 7 seconds 
--- Start Module: rasscf at Thu Dec 16 08:52:40 2021 
 
()()()()()()()()()()()()()()()()()()()()()()()()()()()()()()()()()()()()()()()()()()()()()()()()()()

                                              &RASSCF

                       only a single process is used, running in SERIAL mode
                       available to each process: 2.0 GB of memory, 1 thread?
()()()()()()()()()()()()()()()()()()()()()()()()()()()()()()()()()()()()()()()()()()()()()()()()()()
 
  CHARGE and NACTEL are only compatible if
  INACTIVE is not given and with no symmetry (C1)
  The CHARGE command will be ignored.
 
      Header of the ONEINT file:
      --------------------------
      
      Integrals generated by seward 4.2.0  , Thu Dec 16 08:52:34 2021
 
 
      OrdInt status: non-squared
 
 
      Cartesian coordinates in Angstrom:
      -----------------------------------------------------
      No.  Label        X            Y            Z        
      -----------------------------------------------------
       1   C1         0.00000000   0.71140000   1.26670000
       2   C2         0.00000000  -0.71140000   1.26670000
       3   C3         0.00000000  -1.23800000   0.00960000
       4   C4         0.00000000   1.23800000   0.00960000
       5   S5         0.00000000   0.00000000  -1.19260000
       6   H6         0.00000000   1.31430000   2.16260000
       7   H7         0.00000000  -1.31430000   2.16260000
       8   H8         0.00000000   2.27470000  -0.28030000
       9   H9         0.00000000  -2.27470000  -0.28030000
      -----------------------------------------------------
      Nuclear repulsion energy =   76.43562880
 
++    Wave function specifications:
      -----------------------------
 
      Number of closed shell electrons          18
      Number of electrons in active shells       8
      Max number of holes in RAS1 space          0
      Max nr of electrons in RAS3 space          0
      Number of inactive orbitals                9
      Number of active orbitals                  7
      Number of secondary orbitals              98
      Spin quantum number                      0.0
      State symmetry                             1
--
 
++    Orbital specifications:
      -----------------------
 
      Symmetry species                           1
                                                 a
      Frozen orbitals                            0
      Inactive orbitals                          9
      Active orbitals                            7
      RAS1 orbitals                              0
      RAS2 orbitals                              7
      RAS3 orbitals                              0
      Secondary orbitals                        98
      Deleted orbitals                           0
      Number of basis functions                114
--
 
++    CI expansion specifications:
      ----------------------------
 
      Number of CSFs                           490
      Number of determinants                   630
      Number of root(s) required                 5
      Root chosen for geometry opt.              5
      CI roots used                              1     2     3     4     5
      weights                                0.200 0.200 0.200 0.200 0.200
      highest root included in the CI            5
      max. size of the explicit Hamiltonian    200
--
 
++    Optimization specifications:
      ----------------------------
 
      RASSCF algorithm: LK Cholesky
      Maximum number of macro iterations       200
      Maximum number of SX iterations          100
      Threshold for RASSCF energy            0.100E-07
      Threshold for max MO rotation          0.100E+00
      Threshold for max BLB element          0.100E-03
      Level shift parameter                  0.500E+00
      Make Quasi-Newton update
--
 
      The MO-coefficients are taken from the file:
      /home/shinde/test-molcas/molcas-test9-thio-sa5/thio-c1-sa5-cas109.RasOrb                                                        
      Title: RASSCF average (pseudo-natural) orbitals                                      
 
      Total molecular charge    0.00
 
      ************************************************************************************************************************
      *                                                                                                                      *
      *                                            Wave function control section                                             *
      *                                                                                                                      *
      ************************************************************************************************************************
 
 
                                         RASSCF iterations: Energy and convergence statistics
                                         ----------------------------------------------------
 
      Iter CI   SX   CI       RASSCF       Energy    max ROT     max BLB   max BLB  Level Ln srch  Step   QN   Walltime
          iter iter root      energy       change     param      element    value   shift minimum  type update hh:mm:ss
 Nr of preliminary CI iterations:   4
        1   1    8    0   -34.22514890    0.00E+00  -0.63E-01    3  17 1  0.15E-01*  0.47   0.00    SX    NO    0:00:01
        2   1    7    0   -34.22643003   -0.13E-02* -0.33E-01    3  17 1  0.67E-02*  0.46   0.00    SX    NO    0:00:00
        3   3    7    0   -34.22684947   -0.42E-03* -0.24E-01    3  17 1  0.29E-02*  0.46   0.00    SX    NO    0:00:00
        4   3    7    0   -34.22704912   -0.20E-03* -0.15E-01   16  30 1  0.16E-02*  0.46   0.00    SX    NO    0:00:00
        5   3    7    0   -34.22716564   -0.12E-03* -0.21E-01   16  30 1  0.14E-02*  0.46   2.50    LS   YES    0:00:00
        6   4    6    0   -34.22728499   -0.12E-03* -0.28E-01   16  30 1  0.12E-02*  0.46   2.50    LS   YES    0:00:00
        7   4    7    0   -34.22736570   -0.81E-04* -0.11E-01    3  17 1 -0.15E-02*  0.46   1.35    QN   YES    0:00:00
        8   4    7    0   -34.22742904   -0.63E-04* -0.14E-01    3  17 1 -0.13E-02*  0.46   2.40    LS   YES    0:00:00
        9   4    7    0   -34.22745963   -0.31E-04* -0.12E-01    3  17 1 -0.11E-02*  0.46   1.00    QN   YES    0:00:00
       10   4    6    0   -34.22749175   -0.32E-04* -0.17E-01    7  16 1 -0.69E-03*  0.46   2.50    LS   YES    0:00:00
       11   4    7    0   -34.22750766   -0.16E-04* -0.68E-02    3  17 1  0.11E-02*  0.46   0.96    QN   YES    0:00:00
       12   4    7    0   -34.22751654   -0.89E-05* -0.99E-02    3  17 1  0.69E-03*  0.46   2.50    LS   YES    0:00:00
       13   5    7    0   -34.22752442   -0.79E-05* -0.27E-01   16  17 1 -0.36E-03*  0.46   1.79    QN   YES    0:00:00
       14   6    7    0   -34.22753797   -0.14E-04* -0.24E+00*   3  17 1 -0.64E-03*  0.46   2.50    QN   YES    0:00:00
       15   7    8    0   -34.22765908   -0.12E-03* -0.40E+00*   3  17 1 -0.53E-02*  0.46   1.50    QN   YES    0:00:00
       16   7    8    0   -34.22740984    0.25E-03* -0.41E-01    3  17 1 -0.13E-01*  0.45   0.34    SX   YES    0:00:00
       17   4    8    0   -34.22810397   -0.69E-03* -0.17E+00*   3  17 1 -0.80E-02*  0.45   2.50    QN   YES    0:00:00
       18   5    7    0   -34.22946431   -0.14E-02* -0.69E-01   16  19 1  0.26E-02*  0.45   1.49    QN   YES    0:00:00
       19   4    7    0   -34.22987570   -0.41E-03* -0.12E+00*   3  17 1  0.38E-02*  0.46   1.23    QN   YES    0:00:00
       20   5    7    0   -34.22998623   -0.11E-03*  0.32E-01    3  17 1  0.35E-02*  0.46   0.95    QN   YES    0:00:00
       21   4    7    0   -34.23011731   -0.13E-03* -0.11E-01    3  17 1  0.20E-02*  0.46   1.32    QN   YES    0:00:00
       22   3    6    0   -34.23016733   -0.50E-04* -0.39E-02   16  26 1 -0.46E-03*  0.46   1.39    QN   YES    0:00:00
       23   4    6    0   -34.23018138   -0.14E-04*  0.40E-02    3  17 1 -0.54E-03*  0.46   1.60    QN   YES    0:00:00
       24   3    6    0   -34.23018846   -0.71E-05*  0.26E-02    3  17 1 -0.44E-03*  0.46   1.52    QN   YES    0:00:00
       25   3    6    0   -34.23019133   -0.29E-05*  0.24E-02    7  16 1  0.24E-03*  0.46   1.51    QN   YES    0:00:00
       26   5    6    0   -34.23019259   -0.13E-05* -0.30E-02   16  17 1 -0.12E-03*  0.46   1.65    QN   YES    0:00:00
       27   5    6    0   -34.23019336   -0.78E-06* -0.30E-02    3  17 1  0.15E-03*  0.46   1.66    QN   YES    0:00:00
       28   5    6    0   -34.23019385   -0.48E-06* -0.28E-02    7  16 1 -0.12E-03*  0.46   1.67    QN   YES    0:00:00
       29   5    6    0   -34.23019417   -0.32E-06* -0.26E-02    7  16 1 -0.79E-04   0.46   1.71    QN   YES    0:00:00
       30   5    5    0   -34.23019441   -0.24E-06* -0.21E-02    3  17 1 -0.62E-04   0.46   1.70    QN   YES    0:00:00
       31   4    5    0   -34.23019457   -0.16E-06* -0.11E-02    3  17 1 -0.64E-04   0.46   1.58    QN   YES    0:00:00
       32   3    5    0   -34.23019465   -0.76E-07*  0.34E-03    7  16 1  0.46E-04   0.46   1.45    QN   YES    0:00:00
       33   3    5    0   -34.23019467   -0.25E-07*  0.21E-03    7  16 1  0.23E-04   0.46   1.33    QN   YES    0:00:00
       34   1    4    0   -34.23019468   -0.61E-08   0.38E-03    3  17 1  0.99E-05   0.46   1.18    QN   YES    0:00:00
      Convergence after 34 iterations
       35   4    4    0   -34.23019468   -0.31E-08   0.38E-03    3  17 1  0.68E-05   0.46   1.18    QN   YES    0:00:00
 
      ************************************************************************************************************************
                                                      Wave function printout:
                       occupation of active orbitals, and spin coupling of open shells (u,d: Spin up or down)
      ************************************************************************************************************************
 
      Note: transformation to natural orbitals
      has been made, which may change the order of the CSFs.
 
      printout of CI-coefficients larger than  0.00 for root  1
      energy=     -34.425139
      conf/sym  1111111     Coeff  Weight
             1  2222000   0.94376 0.89067
 
   + sqrt(     1/1     )  |2222000|
 
             2  222ud00   0.02860 0.00082
 
   + sqrt(     1/2     )  |222ab00|
   - sqrt(     1/2     )  |222ba00|
 
             3  2220200  -0.14901 0.02220
 
   + sqrt(     1/1     )  |2220200|
 
             4  222u0d0   0.01440 0.00021
 
   + sqrt(     1/2     )  |222a0b0|
   - sqrt(     1/2     )  |222b0a0|
 
             5  2220ud0   0.00195 0.00000
 
   + sqrt(     1/2     )  |2220ab0|
   - sqrt(     1/2     )  |2220ba0|
 
             6  2220020  -0.06401 0.00410
 
   + sqrt(     1/1     )  |2220020|
 
             7  222u00d  -0.00000 0.00000
 
   + sqrt(     1/2     )  |222a00b|
   - sqrt(     1/2     )  |222b00a|
 
             8  2220u0d   0.00000 0.00000
 
   + sqrt(     1/2     )  |2220a0b|
   - sqrt(     1/2     )  |2220b0a|
 
             9  22200ud  -0.00000 0.00000
 
   + sqrt(     1/2     )  |22200ab|
   - sqrt(     1/2     )  |22200ba|
 
            10  2220002  -0.00561 0.00003
 
   + sqrt(     1/1     )  |2220002|
 
            11  22u2d00  -0.16912 0.02860
 
   - sqrt(     1/2     )  |22a2b00|
   + sqrt(     1/2     )  |22b2a00|
 
            12  22ud200  -0.01112 0.00012
 
   + sqrt(     1/2     )  |22ab200|
   - sqrt(     1/2     )  |22ba200|
 
            13  22u20d0   0.00214 0.00000
 
   - sqrt(     1/2     )  |22a20b0|
   + sqrt(     1/2     )  |22b20a0|
 
            14  22udud0   0.09163 0.00840
 
   + sqrt(     1/4     )  |22abab0|
   - sqrt(     1/4     )  |22abba0|
   - sqrt(     1/4     )  |22baab0|
   + sqrt(     1/4     )  |22baba0|
 
            15  22uudd0  -0.08407 0.00707
 
   - sqrt(     1/3     )  |22aabb0|
   + sqrt(     1/12    )  |22abab0|
   + sqrt(     1/12    )  |22abba0|
   + sqrt(     1/12    )  |22baab0|
   + sqrt(     1/12    )  |22baba0|
   - sqrt(     1/3     )  |22bbaa0|
 
            16  22u02d0  -0.00102 0.00000
 
   - sqrt(     1/2     )  |22a02b0|
   + sqrt(     1/2     )  |22b02a0|
 
            17  22ud020  -0.00527 0.00003
 
   + sqrt(     1/2     )  |22ab020|
   - sqrt(     1/2     )  |22ba020|
 
            18  22u0d20  -0.01981 0.00039
 
   + sqrt(     1/2     )  |22a0b20|
   - sqrt(     1/2     )  |22b0a20|
 
            19  22u200d   0.00000 0.00000
 
   - sqrt(     1/2     )  |22a200b|
   + sqrt(     1/2     )  |22b200a|
 
            20  22udu0d   0.00000 0.00000
 
   + sqrt(     1/4     )  |22aba0b|
   - sqrt(     1/4     )  |22abb0a|
   - sqrt(     1/4     )  |22baa0b|
   + sqrt(     1/4     )  |22bab0a|
 
            21  22uud0d  -0.00000 0.00000
 
   - sqrt(     1/3     )  |22aab0b|
   + sqrt(     1/12    )  |22aba0b|
   + sqrt(     1/12    )  |22abb0a|
   + sqrt(     1/12    )  |22baa0b|
   + sqrt(     1/12    )  |22bab0a|
   - sqrt(     1/3     )  |22bba0a|
 
            22  22u020d   0.00000 0.00000
 
   - sqrt(     1/2     )  |22a020b|
   + sqrt(     1/2     )  |22b020a|
 
            23  22ud0ud  -0.00000 0.00000
 
   + sqrt(     1/4     )  |22ab0ab|
   - sqrt(     1/4     )  |22ab0ba|
   - sqrt(     1/4     )  |22ba0ab|
   + sqrt(     1/4     )  |22ba0ba|
 
            24  22u0dud   0.00000 0.00000
 
   + sqrt(     1/4     )  |22a0bab|
   - sqrt(     1/4     )  |22a0bba|
   - sqrt(     1/4     )  |22b0aab|
   + sqrt(     1/4     )  |22b0aba|
 
            25  22uu0dd  -0.00000 0.00000
 
   - sqrt(     1/3     )  |22aa0bb|
   + sqrt(     1/12    )  |22ab0ab|
   + sqrt(     1/12    )  |22ab0ba|
   + sqrt(     1/12    )  |22ba0ab|
   + sqrt(     1/12    )  |22ba0ba|
   - sqrt(     1/3     )  |22bb0aa|
 
            26  22u0udd  -0.00000 0.00000
 
   - sqrt(     1/3     )  |22a0abb|
   + sqrt(     1/12    )  |22a0bab|
   + sqrt(     1/12    )  |22a0bba|
   + sqrt(     1/12    )  |22b0aab|
   + sqrt(     1/12    )  |22b0aba|
   - sqrt(     1/3     )  |22b0baa|
 
            27  22u002d  -0.00000 0.00000
 
   - sqrt(     1/2     )  |22a002b|
   + sqrt(     1/2     )  |22b002a|
 
            28  22ud002   0.00171 0.00000
 
   + sqrt(     1/2     )  |22ab002|
   - sqrt(     1/2     )  |22ba002|
 
            29  22u0d02  -0.00070 0.00000
 
   + sqrt(     1/2     )  |22a0b02|
   - sqrt(     1/2     )  |22b0a02|
 
            30  22u00d2  -0.00013 0.00000
 
   + sqrt(     1/2     )  |22a00b2|
   - sqrt(     1/2     )  |22b00a2|
 
            31  2u22d00   0.01280 0.00016
 
   + sqrt(     1/2     )  |2a22b00|
   - sqrt(     1/2     )  |2b22a00|
 
            32  2u2d200   0.01450 0.00021
 
   - sqrt(     1/2     )  |2a2b200|
   + sqrt(     1/2     )  |2b2a200|
 
            33  2u220d0   0.00565 0.00003
 
   + sqrt(     1/2     )  |2a220b0|
   - sqrt(     1/2     )  |2b220a0|
 
            34  2u2dud0   0.10632 0.01130
 
   - sqrt(     1/4     )  |2a2bab0|
   + sqrt(     1/4     )  |2a2bba0|
   + sqrt(     1/4     )  |2b2aab0|
   - sqrt(     1/4     )  |2b2aba0|
 
            35  2u2udd0  -0.01901 0.00036
 
   + sqrt(     1/3     )  |2a2abb0|
   - sqrt(     1/12    )  |2a2bab0|
   - sqrt(     1/12    )  |2a2bba0|
   - sqrt(     1/12    )  |2b2aab0|
   - sqrt(     1/12    )  |2b2aba0|
   + sqrt(     1/3     )  |2b2baa0|
 
            36  2u202d0   0.00011 0.00000
 
   + sqrt(     1/2     )  |2a202b0|
   - sqrt(     1/2     )  |2b202a0|
 
            37  2u2d020   0.00151 0.00000
 
   - sqrt(     1/2     )  |2a2b020|
   + sqrt(     1/2     )  |2b2a020|
 
            38  2u20d20  -0.00462 0.00002
 
   - sqrt(     1/2     )  |2a20b20|
   + sqrt(     1/2     )  |2b20a20|
 
            39  2u2200d  -0.00000 0.00000
 
   + sqrt(     1/2     )  |2a2200b|
   - sqrt(     1/2     )  |2b2200a|
 
            40  2u2du0d  -0.00000 0.00000
 
   - sqrt(     1/4     )  |2a2ba0b|
   + sqrt(     1/4     )  |2a2bb0a|
   + sqrt(     1/4     )  |2b2aa0b|
   - sqrt(     1/4     )  |2b2ab0a|
 
            41  2u2ud0d   0.00000 0.00000
 
   + sqrt(     1/3     )  |2a2ab0b|
   - sqrt(     1/12    )  |2a2ba0b|
   - sqrt(     1/12    )  |2a2bb0a|
   - sqrt(     1/12    )  |2b2aa0b|
   - sqrt(     1/12    )  |2b2ab0a|
   + sqrt(     1/3     )  |2b2ba0a|
 
            42  2u2020d   0.00000 0.00000
 
   + sqrt(     1/2     )  |2a2020b|
   - sqrt(     1/2     )  |2b2020a|
 
            43  2u2d0ud  -0.00000 0.00000
 
   - sqrt(     1/4     )  |2a2b0ab|
   + sqrt(     1/4     )  |2a2b0ba|
   + sqrt(     1/4     )  |2b2a0ab|
   - sqrt(     1/4     )  |2b2a0ba|
 
            44  2u20dud   0.00000 0.00000
 
   - sqrt(     1/4     )  |2a20bab|
   + sqrt(     1/4     )  |2a20bba|
   + sqrt(     1/4     )  |2b20aab|
   - sqrt(     1/4     )  |2b20aba|
 
            45  2u2u0dd  -0.00000 0.00000
 
   + sqrt(     1/3     )  |2a2a0bb|
   - sqrt(     1/12    )  |2a2b0ab|
   - sqrt(     1/12    )  |2a2b0ba|
   - sqrt(     1/12    )  |2b2a0ab|
   - sqrt(     1/12    )  |2b2a0ba|
   + sqrt(     1/3     )  |2b2b0aa|
 
            46  2u20udd   0.00000 0.00000
 
   + sqrt(     1/3     )  |2a20abb|
   - sqrt(     1/12    )  |2a20bab|
   - sqrt(     1/12    )  |2a20bba|
   - sqrt(     1/12    )  |2b20aab|
   - sqrt(     1/12    )  |2b20aba|
   + sqrt(     1/3     )  |2b20baa|
 
            47  2u2002d  -0.00000 0.00000
 
   + sqrt(     1/2     )  |2a2002b|
   - sqrt(     1/2     )  |2b2002a|
 
            48  2u2d002  -0.00261 0.00001
 
   - sqrt(     1/2     )  |2a2b002|
   + sqrt(     1/2     )  |2b2a002|
 
            49  2u20d02   0.00069 0.00000
 
   - sqrt(     1/2     )  |2a20b02|
   + sqrt(     1/2     )  |2b20a02|
 
            50  2u200d2   0.00014 0.00000
 
   - sqrt(     1/2     )  |2a200b2|
   + sqrt(     1/2     )  |2b200a2|
 
            51  u222d00  -0.00000 0.00000
 
   - sqrt(     1/2     )  |a222b00|
   + sqrt(     1/2     )  |b222a00|
 
            52  u22d200   0.00000 0.00000
 
   + sqrt(     1/2     )  |a22b200|
   - sqrt(     1/2     )  |b22a200|
 
            53  u2220d0   0.00000 0.00000
 
   - sqrt(     1/2     )  |a2220b0|
   + sqrt(     1/2     )  |b2220a0|
 
            54  u22dud0  -0.00000 0.00000
 
   + sqrt(     1/4     )  |a22bab0|
   - sqrt(     1/4     )  |a22bba0|
   - sqrt(     1/4     )  |b22aab0|
   + sqrt(     1/4     )  |b22aba0|
 
            55  u22udd0   0.00000 0.00000
 
   - sqrt(     1/3     )  |a22abb0|
   + sqrt(     1/12    )  |a22bab0|
   + sqrt(     1/12    )  |a22bba0|
   + sqrt(     1/12    )  |b22aab0|
   + sqrt(     1/12    )  |b22aba0|
   - sqrt(     1/3     )  |b22baa0|
 
            56  u2202d0  -0.00000 0.00000
 
   - sqrt(     1/2     )  |a2202b0|
   + sqrt(     1/2     )  |b2202a0|
 
            57  u22d020   0.00000 0.00000
 
   + sqrt(     1/2     )  |a22b020|
   - sqrt(     1/2     )  |b22a020|
 
            58  u220d20  -0.00000 0.00000
 
   + sqrt(     1/2     )  |a220b20|
   - sqrt(     1/2     )  |b220a20|
 
            59  u22200d  -0.01513 0.00023
 
   - sqrt(     1/2     )  |a22200b|
   + sqrt(     1/2     )  |b22200a|
 
            60  u22du0d   0.03989 0.00159
 
   + sqrt(     1/4     )  |a22ba0b|
   - sqrt(     1/4     )  |a22bb0a|
   - sqrt(     1/4     )  |b22aa0b|
   + sqrt(     1/4     )  |b22ab0a|
 
            61  u22ud0d   0.04324 0.00187
 
   - sqrt(     1/3     )  |a22ab0b|
   + sqrt(     1/12    )  |a22ba0b|
   + sqrt(     1/12    )  |a22bb0a|
   + sqrt(     1/12    )  |b22aa0b|
   + sqrt(     1/12    )  |b22ab0a|
   - sqrt(     1/3     )  |b22ba0a|
 
            62  u22020d  -0.00484 0.00002
 
   - sqrt(     1/2     )  |a22020b|
   + sqrt(     1/2     )  |b22020a|
 
            63  u22d0ud  -0.01139 0.00013
 
   + sqrt(     1/4     )  |a22b0ab|
   - sqrt(     1/4     )  |a22b0ba|
   - sqrt(     1/4     )  |b22a0ab|
   + sqrt(     1/4     )  |b22a0ba|
 
            64  u220dud  -0.00154 0.00000
 
   + sqrt(     1/4     )  |a220bab|
   - sqrt(     1/4     )  |a220bba|
   - sqrt(     1/4     )  |b220aab|
   + sqrt(     1/4     )  |b220aba|
 
            65  u22u0dd  -0.00374 0.00001
 
   - sqrt(     1/3     )  |a22a0bb|
   + sqrt(     1/12    )  |a22b0ab|
   + sqrt(     1/12    )  |a22b0ba|
   + sqrt(     1/12    )  |b22a0ab|
   + sqrt(     1/12    )  |b22a0ba|
   - sqrt(     1/3     )  |b22b0aa|
 
            66  u220udd  -0.00040 0.00000
 
   - sqrt(     1/3     )  |a220abb|
   + sqrt(     1/12    )  |a220bab|
   + sqrt(     1/12    )  |a220bba|
   + sqrt(     1/12    )  |b220aab|
   + sqrt(     1/12    )  |b220aba|
   - sqrt(     1/3     )  |b220baa|
 
            67  u22002d   0.00004 0.00000
 
   - sqrt(     1/2     )  |a22002b|
   + sqrt(     1/2     )  |b22002a|
 
            68  u22d002  -0.00000 0.00000
 
   + sqrt(     1/2     )  |a22b002|
   - sqrt(     1/2     )  |b22a002|
 
            69  u220d02   0.00000 0.00000
 
   + sqrt(     1/2     )  |a220b02|
   - sqrt(     1/2     )  |b220a02|
 
            70  u2200d2  -0.00000 0.00000
 
   + sqrt(     1/2     )  |a2200b2|
   - sqrt(     1/2     )  |b2200a2|
 
            71  2202200  -0.04935 0.00244
 
   + sqrt(     1/1     )  |2202200|
 
            72  2202ud0   0.00787 0.00006
 
   + sqrt(     1/2     )  |2202ab0|
   - sqrt(     1/2     )  |2202ba0|
 
            73  220u2d0   0.02335 0.00055
 
   - sqrt(     1/2     )  |220a2b0|
   + sqrt(     1/2     )  |220b2a0|
 
            74  2202020  -0.06376 0.00407
 
   + sqrt(     1/1     )  |2202020|
 
            75  220ud20  -0.00312 0.00001
 
   + sqrt(     1/2     )  |220ab20|
   - sqrt(     1/2     )  |220ba20|
 
            76  2200220   0.02074 0.00043
 
   + sqrt(     1/1     )  |2200220|
 
            77  2202u0d   0.00000 0.00000
 
   + sqrt(     1/2     )  |2202a0b|
   - sqrt(     1/2     )  |2202b0a|
 
            78  220u20d  -0.00000 0.00000
 
   - sqrt(     1/2     )  |220a20b|
   + sqrt(     1/2     )  |220b20a|
 
            79  22020ud  -0.00000 0.00000
 
   + sqrt(     1/2     )  |22020ab|
   - sqrt(     1/2     )  |22020ba|
 
            80  220udud  -0.00000 0.00000
 
   + sqrt(     1/4     )  |220abab|
   - sqrt(     1/4     )  |220abba|
   - sqrt(     1/4     )  |220baab|
   + sqrt(     1/4     )  |220baba|
 
            81  22002ud   0.00000 0.00000
 
   + sqrt(     1/2     )  |22002ab|
   - sqrt(     1/2     )  |22002ba|
 
            82  220uudd   0.00000 0.00000
 
   - sqrt(     1/3     )  |220aabb|
   + sqrt(     1/12    )  |220abab|
   + sqrt(     1/12    )  |220abba|
   + sqrt(     1/12    )  |220baab|
   + sqrt(     1/12    )  |220baba|
   - sqrt(     1/3     )  |220bbaa|
 
            83  220u02d  -0.00000 0.00000
 
   - sqrt(     1/2     )  |220a02b|
   + sqrt(     1/2     )  |220b02a|
 
            84  2200u2d   0.00000 0.00000
 
   - sqrt(     1/2     )  |2200a2b|
   + sqrt(     1/2     )  |2200b2a|
 
            85  2202002  -0.00806 0.00006
 
   + sqrt(     1/1     )  |2202002|
 
            86  220ud02  -0.00033 0.00000
 
   + sqrt(     1/2     )  |220ab02|
   - sqrt(     1/2     )  |220ba02|
 
            87  2200202   0.00165 0.00000
 
   + sqrt(     1/1     )  |2200202|
 
            88  220u0d2   0.00048 0.00000
 
   + sqrt(     1/2     )  |220a0b2|
   - sqrt(     1/2     )  |220b0a2|
 
            89  2200ud2  -0.00018 0.00000
 
   + sqrt(     1/2     )  |2200ab2|
   - sqrt(     1/2     )  |2200ba2|
 
            90  2200022   0.00106 0.00000
 
   + sqrt(     1/1     )  |2200022|
 
            91  2ud2200  -0.00999 0.00010
 
   + sqrt(     1/2     )  |2ab2200|
   - sqrt(     1/2     )  |2ba2200|
 
            92  2ud2ud0  -0.00035 0.00000
 
   + sqrt(     1/4     )  |2ab2ab0|
   - sqrt(     1/4     )  |2ab2ba0|
   - sqrt(     1/4     )  |2ba2ab0|
   + sqrt(     1/4     )  |2ba2ba0|
 
            93  2udu2d0  -0.00278 0.00001
 
   - sqrt(     1/4     )  |2aba2b0|
   + sqrt(     1/4     )  |2abb2a0|
   + sqrt(     1/4     )  |2baa2b0|
   - sqrt(     1/4     )  |2bab2a0|
 
            94  2ud2020  -0.05823 0.00339
 
   + sqrt(     1/2     )  |2ab2020|
   - sqrt(     1/2     )  |2ba2020|
 
            95  2udud20  -0.00161 0.00000
 
   + sqrt(     1/4     )  |2abab20|
   - sqrt(     1/4     )  |2abba20|
   - sqrt(     1/4     )  |2baab20|
   + sqrt(     1/4     )  |2baba20|
 
            96  2ud0220   0.01788 0.00032
 
   + sqrt(     1/2     )  |2ab0220|
   - sqrt(     1/2     )  |2ba0220|
 
            97  2ud2u0d   0.00000 0.00000
 
   + sqrt(     1/4     )  |2ab2a0b|
   - sqrt(     1/4     )  |2ab2b0a|
   - sqrt(     1/4     )  |2ba2a0b|
   + sqrt(     1/4     )  |2ba2b0a|
 
            98  2udu20d   0.00000 0.00000
 
   - sqrt(     1/4     )  |2aba20b|
   + sqrt(     1/4     )  |2abb20a|
   + sqrt(     1/4     )  |2baa20b|
   - sqrt(     1/4     )  |2bab20a|
 
            99  2ud20ud   0.00000 0.00000
 
   + sqrt(     1/4     )  |2ab20ab|
   - sqrt(     1/4     )  |2ab20ba|
   - sqrt(     1/4     )  |2ba20ab|
   + sqrt(     1/4     )  |2ba20ba|
 
           100  2ududud   0.00000 0.00000
 
   + sqrt(     1/8     )  |2ababab|
   - sqrt(     1/8     )  |2ababba|
   - sqrt(     1/8     )  |2abbaab|
   + sqrt(     1/8     )  |2abbaba|
   - sqrt(     1/8     )  |2baabab|
   + sqrt(     1/8     )  |2baabba|
   + sqrt(     1/8     )  |2babaab|
   - sqrt(     1/8     )  |2bababa|
 
           101  2ud02ud  -0.00000 0.00000
 
   + sqrt(     1/4     )  |2ab02ab|
   - sqrt(     1/4     )  |2ab02ba|
   - sqrt(     1/4     )  |2ba02ab|
   + sqrt(     1/4     )  |2ba02ba|
 
           102  2uduudd  -0.00000 0.00000
 
   - sqrt(     1/6     )  |2abaabb|
   + sqrt(     1/24    )  |2ababab|
   + sqrt(     1/24    )  |2ababba|
   + sqrt(     1/24    )  |2abbaab|
   + sqrt(     1/24    )  |2abbaba|
   - sqrt(     1/6     )  |2abbbaa|
   + sqrt(     1/6     )  |2baaabb|
   - sqrt(     1/24    )  |2baabab|
   - sqrt(     1/24    )  |2baabba|
   - sqrt(     1/24    )  |2babaab|
   - sqrt(     1/24    )  |2bababa|
   + sqrt(     1/6     )  |2babbaa|
 
           103  2udu02d  -0.00000 0.00000
 
   - sqrt(     1/4     )  |2aba02b|
   + sqrt(     1/4     )  |2abb02a|
   + sqrt(     1/4     )  |2baa02b|
   - sqrt(     1/4     )  |2bab02a|
 
           104  2ud0u2d   0.00000 0.00000
 
   - sqrt(     1/4     )  |2ab0a2b|
   + sqrt(     1/4     )  |2ab0b2a|
   + sqrt(     1/4     )  |2ba0a2b|
   - sqrt(     1/4     )  |2ba0b2a|
 
           105  2ud2002   0.00801 0.00006
 
   + sqrt(     1/2     )  |2ab2002|
   - sqrt(     1/2     )  |2ba2002|
 
           106  2udud02   0.00045 0.00000
 
   + sqrt(     1/4     )  |2abab02|
   - sqrt(     1/4     )  |2abba02|
   - sqrt(     1/4     )  |2baab02|
   + sqrt(     1/4     )  |2baba02|
 
           107  2ud0202  -0.00137 0.00000
 
   + sqrt(     1/2     )  |2ab0202|
   - sqrt(     1/2     )  |2ba0202|
 
           108  2udu0d2  -0.00026 0.00000
 
   + sqrt(     1/4     )  |2aba0b2|
   - sqrt(     1/4     )  |2abb0a2|
   - sqrt(     1/4     )  |2baa0b2|
   + sqrt(     1/4     )  |2bab0a2|
 
           109  2ud0ud2   0.00001 0.00000
 
   + sqrt(     1/4     )  |2ab0ab2|
   - sqrt(     1/4     )  |2ab0ba2|
   - sqrt(     1/4     )  |2ba0ab2|
   + sqrt(     1/4     )  |2ba0ba2|
 
           110  2ud0022  -0.00026 0.00000
 
   + sqrt(     1/2     )  |2ab0022|
   - sqrt(     1/2     )  |2ba0022|
 
           111  u2d2200  -0.00000 0.00000
 
   - sqrt(     1/2     )  |a2b2200|
   + sqrt(     1/2     )  |b2a2200|
 
           112  u2d2ud0   0.00000 0.00000
 
   - sqrt(     1/4     )  |a2b2ab0|
   + sqrt(     1/4     )  |a2b2ba0|
   + sqrt(     1/4     )  |b2a2ab0|
   - sqrt(     1/4     )  |b2a2ba0|
 
           113  u2du2d0   0.00000 0.00000
 
   + sqrt(     1/4     )  |a2ba2b0|
   - sqrt(     1/4     )  |a2bb2a0|
   - sqrt(     1/4     )  |b2aa2b0|
   + sqrt(     1/4     )  |b2ab2a0|
 
           114  u2d2020  -0.00000 0.00000
 
   - sqrt(     1/2     )  |a2b2020|
   + sqrt(     1/2     )  |b2a2020|
 
           115  u2dud20  -0.00000 0.00000
 
   - sqrt(     1/4     )  |a2bab20|
   + sqrt(     1/4     )  |a2bba20|
   + sqrt(     1/4     )  |b2aab20|
   - sqrt(     1/4     )  |b2aba20|
 
           116  u2d0220   0.00000 0.00000
 
   - sqrt(     1/2     )  |a2b0220|
   + sqrt(     1/2     )  |b2a0220|
 
           117  u2d2u0d  -0.01062 0.00011
 
   - sqrt(     1/4     )  |a2b2a0b|
   + sqrt(     1/4     )  |a2b2b0a|
   + sqrt(     1/4     )  |b2a2a0b|
   - sqrt(     1/4     )  |b2a2b0a|
 
           118  u2du20d  -0.00208 0.00000
 
   + sqrt(     1/4     )  |a2ba20b|
   - sqrt(     1/4     )  |a2bb20a|
   - sqrt(     1/4     )  |b2aa20b|
   + sqrt(     1/4     )  |b2ab20a|
 
           119  u2d20ud   0.01108 0.00012
 
   - sqrt(     1/4     )  |a2b20ab|
   + sqrt(     1/4     )  |a2b20ba|
   + sqrt(     1/4     )  |b2a20ab|
   - sqrt(     1/4     )  |b2a20ba|
 
           120  u2dudud   0.00056 0.00000
 
   - sqrt(     1/8     )  |a2babab|
   + sqrt(     1/8     )  |a2babba|
   + sqrt(     1/8     )  |a2bbaab|
   - sqrt(     1/8     )  |a2bbaba|
   + sqrt(     1/8     )  |b2aabab|
   - sqrt(     1/8     )  |b2aabba|
   - sqrt(     1/8     )  |b2abaab|
   + sqrt(     1/8     )  |b2ababa|
 
           121  u2d02ud  -0.00276 0.00001
 
   - sqrt(     1/4     )  |a2b02ab|
   + sqrt(     1/4     )  |a2b02ba|
   + sqrt(     1/4     )  |b2a02ab|
   - sqrt(     1/4     )  |b2a02ba|
 
           122  u2duudd  -0.00054 0.00000
 
   + sqrt(     1/6     )  |a2baabb|
   - sqrt(     1/24    )  |a2babab|
   - sqrt(     1/24    )  |a2babba|
   - sqrt(     1/24    )  |a2bbaab|
   - sqrt(     1/24    )  |a2bbaba|
   + sqrt(     1/6     )  |a2bbbaa|
   - sqrt(     1/6     )  |b2aaabb|
   + sqrt(     1/24    )  |b2aabab|
   + sqrt(     1/24    )  |b2aabba|
   + sqrt(     1/24    )  |b2abaab|
   + sqrt(     1/24    )  |b2ababa|
   - sqrt(     1/6     )  |b2abbaa|
 
           123  u2du02d   0.00035 0.00000
 
   + sqrt(     1/4     )  |a2ba02b|
   - sqrt(     1/4     )  |a2bb02a|
   - sqrt(     1/4     )  |b2aa02b|
   + sqrt(     1/4     )  |b2ab02a|
 
           124  u2d0u2d  -0.00013 0.00000
 
   + sqrt(     1/4     )  |a2b0a2b|
   - sqrt(     1/4     )  |a2b0b2a|
   - sqrt(     1/4     )  |b2a0a2b|
   + sqrt(     1/4     )  |b2a0b2a|
 
           125  u2d2002   0.00000 0.00000
 
   - sqrt(     1/2     )  |a2b2002|
   + sqrt(     1/2     )  |b2a2002|
 
           126  u2dud02   0.00000 0.00000
 
   - sqrt(     1/4     )  |a2bab02|
   + sqrt(     1/4     )  |a2bba02|
   + sqrt(     1/4     )  |b2aab02|
   - sqrt(     1/4     )  |b2aba02|
 
           127  u2d0202  -0.00000 0.00000
 
   - sqrt(     1/2     )  |a2b0202|
   + sqrt(     1/2     )  |b2a0202|
 
           128  u2du0d2   0.00000 0.00000
 
   - sqrt(     1/4     )  |a2ba0b2|
   + sqrt(     1/4     )  |a2bb0a2|
   + sqrt(     1/4     )  |b2aa0b2|
   - sqrt(     1/4     )  |b2ab0a2|
 
           129  u2d0ud2  -0.00000 0.00000
 
   - sqrt(     1/4     )  |a2b0ab2|
   + sqrt(     1/4     )  |a2b0ba2|
   + sqrt(     1/4     )  |b2a0ab2|
   - sqrt(     1/4     )  |b2a0ba2|
 
           130  u2d0022  -0.00000 0.00000
 
   - sqrt(     1/2     )  |a2b0022|
   + sqrt(     1/2     )  |b2a0022|
 
           131  2022200  -0.03669 0.00135
 
   + sqrt(     1/1     )  |2022200|
 
           132  2022ud0  -0.00704 0.00005
 
   + sqrt(     1/2     )  |2022ab0|
   - sqrt(     1/2     )  |2022ba0|
 
           133  202u2d0  -0.00590 0.00003
 
   - sqrt(     1/2     )  |202a2b0|
   + sqrt(     1/2     )  |202b2a0|
 
           134  2022020  -0.03479 0.00121
 
   + sqrt(     1/1     )  |2022020|
 
           135  202ud20  -0.00060 0.00000
 
   + sqrt(     1/2     )  |202ab20|
   - sqrt(     1/2     )  |202ba20|
 
           136  2020220   0.01340 0.00018
 
   + sqrt(     1/1     )  |2020220|
 
           137  2022u0d   0.00000 0.00000
 
   + sqrt(     1/2     )  |2022a0b|
   - sqrt(     1/2     )  |2022b0a|
 
           138  202u20d  -0.00000 0.00000
 
   - sqrt(     1/2     )  |202a20b|
   + sqrt(     1/2     )  |202b20a|
 
           139  20220ud   0.00000 0.00000
 
   + sqrt(     1/2     )  |20220ab|
   - sqrt(     1/2     )  |20220ba|
 
           140  202udud   0.00000 0.00000
 
   + sqrt(     1/4     )  |202abab|
   - sqrt(     1/4     )  |202abba|
   - sqrt(     1/4     )  |202baab|
   + sqrt(     1/4     )  |202baba|
 
           141  20202ud  -0.00000 0.00000
 
   + sqrt(     1/2     )  |20202ab|
   - sqrt(     1/2     )  |20202ba|
 
           142  202uudd  -0.00000 0.00000
 
   - sqrt(     1/3     )  |202aabb|
   + sqrt(     1/12    )  |202abab|
   + sqrt(     1/12    )  |202abba|
   + sqrt(     1/12    )  |202baab|
   + sqrt(     1/12    )  |202baba|
   - sqrt(     1/3     )  |202bbaa|
 
           143  202u02d  -0.00000 0.00000
 
   - sqrt(     1/2     )  |202a02b|
   + sqrt(     1/2     )  |202b02a|
 
           144  2020u2d   0.00000 0.00000
 
   - sqrt(     1/2     )  |2020a2b|
   + sqrt(     1/2     )  |2020b2a|
 
           145  2022002  -0.00479 0.00002
 
   + sqrt(     1/1     )  |2022002|
 
           146  202ud02  -0.00023 0.00000
 
   + sqrt(     1/2     )  |202ab02|
   - sqrt(     1/2     )  |202ba02|
 
           147  2020202   0.00115 0.00000
 
   + sqrt(     1/1     )  |2020202|
 
           148  202u0d2  -0.00039 0.00000
 
   + sqrt(     1/2     )  |202a0b2|
   - sqrt(     1/2     )  |202b0a2|
 
           149  2020ud2   0.00028 0.00000
 
   + sqrt(     1/2     )  |2020ab2|
   - sqrt(     1/2     )  |2020ba2|
 
           150  2020022   0.00049 0.00000
 
   + sqrt(     1/1     )  |2020022|
 
           151  ud22200   0.00000 0.00000
 
   + sqrt(     1/2     )  |ab22200|
   - sqrt(     1/2     )  |ba22200|
 
           152  ud22ud0  -0.00000 0.00000
 
   + sqrt(     1/4     )  |ab22ab0|
   - sqrt(     1/4     )  |ab22ba0|
   - sqrt(     1/4     )  |ba22ab0|
   + sqrt(     1/4     )  |ba22ba0|
 
           153  ud2u2d0  -0.00000 0.00000
 
   - sqrt(     1/4     )  |ab2a2b0|
   + sqrt(     1/4     )  |ab2b2a0|
   + sqrt(     1/4     )  |ba2a2b0|
   - sqrt(     1/4     )  |ba2b2a0|
 
           154  ud22020  -0.00000 0.00000
 
   + sqrt(     1/2     )  |ab22020|
   - sqrt(     1/2     )  |ba22020|
 
           155  ud2ud20   0.00000 0.00000
 
   + sqrt(     1/4     )  |ab2ab20|
   - sqrt(     1/4     )  |ab2ba20|
   - sqrt(     1/4     )  |ba2ab20|
   + sqrt(     1/4     )  |ba2ba20|
 
           156  ud20220  -0.00000 0.00000
 
   + sqrt(     1/2     )  |ab20220|
   - sqrt(     1/2     )  |ba20220|
 
           157  ud22u0d   0.01428 0.00020
 
   + sqrt(     1/4     )  |ab22a0b|
   - sqrt(     1/4     )  |ab22b0a|
   - sqrt(     1/4     )  |ba22a0b|
   + sqrt(     1/4     )  |ba22b0a|
 
           158  ud2u20d  -0.00444 0.00002
 
   - sqrt(     1/4     )  |ab2a20b|
   + sqrt(     1/4     )  |ab2b20a|
   + sqrt(     1/4     )  |ba2a20b|
   - sqrt(     1/4     )  |ba2b20a|
 
           159  ud220ud  -0.01397 0.00020
 
   + sqrt(     1/4     )  |ab220ab|
   - sqrt(     1/4     )  |ab220ba|
   - sqrt(     1/4     )  |ba220ab|
   + sqrt(     1/4     )  |ba220ba|
 
           160  ud2udud  -0.00036 0.00000
 
   + sqrt(     1/8     )  |ab2abab|
   - sqrt(     1/8     )  |ab2abba|
   - sqrt(     1/8     )  |ab2baab|
   + sqrt(     1/8     )  |ab2baba|
   - sqrt(     1/8     )  |ba2abab|
   + sqrt(     1/8     )  |ba2abba|
   + sqrt(     1/8     )  |ba2baab|
   - sqrt(     1/8     )  |ba2baba|
 
           161  ud202ud   0.00410 0.00002
 
   + sqrt(     1/4     )  |ab202ab|
   - sqrt(     1/4     )  |ab202ba|
   - sqrt(     1/4     )  |ba202ab|
   + sqrt(     1/4     )  |ba202ba|
 
           162  ud2uudd   0.00112 0.00000
 
   - sqrt(     1/6     )  |ab2aabb|
   + sqrt(     1/24    )  |ab2abab|
   + sqrt(     1/24    )  |ab2abba|
   + sqrt(     1/24    )  |ab2baab|
   + sqrt(     1/24    )  |ab2baba|
   - sqrt(     1/6     )  |ab2bbaa|
   + sqrt(     1/6     )  |ba2aabb|
   - sqrt(     1/24    )  |ba2abab|
   - sqrt(     1/24    )  |ba2abba|
   - sqrt(     1/24    )  |ba2baab|
   - sqrt(     1/24    )  |ba2baba|
   + sqrt(     1/6     )  |ba2bbaa|
 
           163  ud2u02d  -0.00187 0.00000
 
   - sqrt(     1/4     )  |ab2a02b|
   + sqrt(     1/4     )  |ab2b02a|
   + sqrt(     1/4     )  |ba2a02b|
   - sqrt(     1/4     )  |ba2b02a|
 
           164  ud20u2d   0.00153 0.00000
 
   - sqrt(     1/4     )  |ab20a2b|
   + sqrt(     1/4     )  |ab20b2a|
   + sqrt(     1/4     )  |ba20a2b|
   - sqrt(     1/4     )  |ba20b2a|
 
           165  ud22002  -0.00000 0.00000
 
   + sqrt(     1/2     )  |ab22002|
   - sqrt(     1/2     )  |ba22002|
 
           166  ud2ud02   0.00000 0.00000
 
   + sqrt(     1/4     )  |ab2ab02|
   - sqrt(     1/4     )  |ab2ba02|
   - sqrt(     1/4     )  |ba2ab02|
   + sqrt(     1/4     )  |ba2ba02|
 
           167  ud20202  -0.00000 0.00000
 
   + sqrt(     1/2     )  |ab20202|
   - sqrt(     1/2     )  |ba20202|
 
           168  ud2u0d2  -0.00000 0.00000
 
   + sqrt(     1/4     )  |ab2a0b2|
   - sqrt(     1/4     )  |ab2b0a2|
   - sqrt(     1/4     )  |ba2a0b2|
   + sqrt(     1/4     )  |ba2b0a2|
 
           169  ud20ud2   0.00000 0.00000
 
   + sqrt(     1/4     )  |ab20ab2|
   - sqrt(     1/4     )  |ab20ba2|
   - sqrt(     1/4     )  |ba20ab2|
   + sqrt(     1/4     )  |ba20ba2|
 
           170  ud20022   0.00000 0.00000
 
   + sqrt(     1/2     )  |ab20022|
   - sqrt(     1/2     )  |ba20022|
 
           171  0222200  -0.01110 0.00012
 
   + sqrt(     1/1     )  |0222200|
 
           172  0222ud0   0.00674 0.00005
 
   + sqrt(     1/2     )  |0222ab0|
   - sqrt(     1/2     )  |0222ba0|
 
           173  022u2d0   0.00119 0.00000
 
   - sqrt(     1/2     )  |022a2b0|
   + sqrt(     1/2     )  |022b2a0|
 
           174  0222020  -0.00317 0.00001
 
   + sqrt(     1/1     )  |0222020|
 
           175  022ud20  -0.00110 0.00000
 
   + sqrt(     1/2     )  |022ab20|
   - sqrt(     1/2     )  |022ba20|
 
           176  0220220   0.00120 0.00000
 
   + sqrt(     1/1     )  |0220220|
 
           177  0222u0d  -0.00000 0.00000
 
   + sqrt(     1/2     )  |0222a0b|
   - sqrt(     1/2     )  |0222b0a|
 
           178  022u20d   0.00000 0.00000
 
   - sqrt(     1/2     )  |022a20b|
   + sqrt(     1/2     )  |022b20a|
 
           179  02220ud  -0.00000 0.00000
 
   + sqrt(     1/2     )  |02220ab|
   - sqrt(     1/2     )  |02220ba|
 
           180  022udud   0.00000 0.00000
 
   + sqrt(     1/4     )  |022abab|
   - sqrt(     1/4     )  |022abba|
   - sqrt(     1/4     )  |022baab|
   + sqrt(     1/4     )  |022baba|
 
           181  02202ud   0.00000 0.00000
 
   + sqrt(     1/2     )  |02202ab|
   - sqrt(     1/2     )  |02202ba|
 
           182  022uudd   0.00000 0.00000
 
   - sqrt(     1/3     )  |022aabb|
   + sqrt(     1/12    )  |022abab|
   + sqrt(     1/12    )  |022abba|
   + sqrt(     1/12    )  |022baab|
   + sqrt(     1/12    )  |022baba|
   - sqrt(     1/3     )  |022bbaa|
 
           183  022u02d  -0.00000 0.00000
 
   - sqrt(     1/2     )  |022a02b|
   + sqrt(     1/2     )  |022b02a|
 
           184  0220u2d  -0.00000 0.00000
 
   - sqrt(     1/2     )  |0220a2b|
   + sqrt(     1/2     )  |0220b2a|
 
           185  0222002  -0.05773 0.00333
 
   + sqrt(     1/1     )  |0222002|
 
           186  022ud02   0.00198 0.00000
 
   + sqrt(     1/2     )  |022ab02|
   - sqrt(     1/2     )  |022ba02|
 
           187  0220202   0.01136 0.00013
 
   + sqrt(     1/1     )  |0220202|
 
           188  022u0d2  -0.00074 0.00000
 
   + sqrt(     1/2     )  |022a0b2|
   - sqrt(     1/2     )  |022b0a2|
 
           189  0220ud2  -0.00113 0.00000
 
   + sqrt(     1/2     )  |0220ab2|
   - sqrt(     1/2     )  |0220ba2|
 
           190  0220022   0.00395 0.00002
 
   + sqrt(     1/1     )  |0220022|
 
           191  2uu2dd0  -0.00657 0.00004
 
   - sqrt(     1/3     )  |2aa2bb0|
   + sqrt(     1/12    )  |2ab2ab0|
   + sqrt(     1/12    )  |2ab2ba0|
   + sqrt(     1/12    )  |2ba2ab0|
   + sqrt(     1/12    )  |2ba2ba0|
   - sqrt(     1/3     )  |2bb2aa0|
 
           192  2uud2d0  -0.01574 0.00025
 
   + sqrt(     1/3     )  |2aab2b0|
   - sqrt(     1/12    )  |2aba2b0|
   - sqrt(     1/12    )  |2abb2a0|
   - sqrt(     1/12    )  |2baa2b0|
   - sqrt(     1/12    )  |2bab2a0|
   + sqrt(     1/3     )  |2bba2a0|
 
           193  2uudd20  -0.00022 0.00000
 
   - sqrt(     1/3     )  |2aabb20|
   + sqrt(     1/12    )  |2abab20|
   + sqrt(     1/12    )  |2abba20|
   + sqrt(     1/12    )  |2baab20|
   + sqrt(     1/12    )  |2baba20|
   - sqrt(     1/3     )  |2bbaa20|
 
           194  2uu2d0d   0.00000 0.00000
 
   - sqrt(     1/3     )  |2aa2b0b|
   + sqrt(     1/12    )  |2ab2a0b|
   + sqrt(     1/12    )  |2ab2b0a|
   + sqrt(     1/12    )  |2ba2a0b|
   + sqrt(     1/12    )  |2ba2b0a|
   - sqrt(     1/3     )  |2bb2a0a|
 
           195  2uud20d  -0.00000 0.00000
 
   + sqrt(     1/3     )  |2aab20b|
   - sqrt(     1/12    )  |2aba20b|
   - sqrt(     1/12    )  |2abb20a|
   - sqrt(     1/12    )  |2baa20b|
   - sqrt(     1/12    )  |2bab20a|
   + sqrt(     1/3     )  |2bba20a|
 
           196  2uuddud   0.00000 0.00000
 
   - sqrt(     1/6     )  |2aabbab|
   + sqrt(     1/6     )  |2aabbba|
   + sqrt(     1/24    )  |2ababab|
   - sqrt(     1/24    )  |2ababba|
   + sqrt(     1/24    )  |2abbaab|
   - sqrt(     1/24    )  |2abbaba|
   + sqrt(     1/24    )  |2baabab|
   - sqrt(     1/24    )  |2baabba|
   + sqrt(     1/24    )  |2babaab|
   - sqrt(     1/24    )  |2bababa|
   - sqrt(     1/6     )  |2bbaaab|
   + sqrt(     1/6     )  |2bbaaba|
 
           197  2uu20dd  -0.00000 0.00000
 
   - sqrt(     1/3     )  |2aa20bb|
   + sqrt(     1/12    )  |2ab20ab|
   + sqrt(     1/12    )  |2ab20ba|
   + sqrt(     1/12    )  |2ba20ab|
   + sqrt(     1/12    )  |2ba20ba|
   - sqrt(     1/3     )  |2bb20aa|
 
           198  2uududd  -0.00000 0.00000
 
   + sqrt(     2/9     )  |2aababb|
   - sqrt(     1/18    )  |2aabbab|
   - sqrt(     1/18    )  |2aabbba|
   - sqrt(     1/18    )  |2abaabb|
   + sqrt(     1/72    )  |2ababab|
   + sqrt(     1/72    )  |2ababba|
   - sqrt(     1/72    )  |2abbaab|
   - sqrt(     1/72    )  |2abbaba|
   + sqrt(     1/18    )  |2abbbaa|
   - sqrt(     1/18    )  |2baaabb|
   + sqrt(     1/72    )  |2baabab|
   + sqrt(     1/72    )  |2baabba|
   - sqrt(     1/72    )  |2babaab|
   - sqrt(     1/72    )  |2bababa|
   + sqrt(     1/18    )  |2babbaa|
   + sqrt(     1/18    )  |2bbaaab|
   + sqrt(     1/18    )  |2bbaaba|
   - sqrt(     2/9     )  |2bbabaa|
 
           199  2uuuddd  -0.00000 0.00000
 
   - sqrt(     1/4     )  |2aaabbb|
   + sqrt(     1/36    )  |2aababb|
   + sqrt(     1/36    )  |2aabbab|
   + sqrt(     1/36    )  |2aabbba|
   + sqrt(     1/36    )  |2abaabb|
   + sqrt(     1/36    )  |2ababab|
   + sqrt(     1/36    )  |2ababba|
   - sqrt(     1/36    )  |2abbaab|
   - sqrt(     1/36    )  |2abbaba|
   - sqrt(     1/36    )  |2abbbaa|
   + sqrt(     1/36    )  |2baaabb|
   + sqrt(     1/36    )  |2baabab|
   + sqrt(     1/36    )  |2baabba|
   - sqrt(     1/36    )  |2babaab|
   - sqrt(     1/36    )  |2bababa|
   - sqrt(     1/36    )  |2babbaa|
   - sqrt(     1/36    )  |2bbaaab|
   - sqrt(     1/36    )  |2bbaaba|
   - sqrt(     1/36    )  |2bbabaa|
   + sqrt(     1/4     )  |2bbbaaa|
 
           200  2uu02dd   0.00000 0.00000
 
   - sqrt(     1/3     )  |2aa02bb|
   + sqrt(     1/12    )  |2ab02ab|
   + sqrt(     1/12    )  |2ab02ba|
   + sqrt(     1/12    )  |2ba02ab|
   + sqrt(     1/12    )  |2ba02ba|
   - sqrt(     1/3     )  |2bb02aa|
 
           201  2uud02d  -0.00000 0.00000
 
   + sqrt(     1/3     )  |2aab02b|
   - sqrt(     1/12    )  |2aba02b|
   - sqrt(     1/12    )  |2abb02a|
   - sqrt(     1/12    )  |2baa02b|
   - sqrt(     1/12    )  |2bab02a|
   + sqrt(     1/3     )  |2bba02a|
 
           202  2uu0d2d   0.00000 0.00000
 
   + sqrt(     1/3     )  |2aa0b2b|
   - sqrt(     1/12    )  |2ab0a2b|
   - sqrt(     1/12    )  |2ab0b2a|
   - sqrt(     1/12    )  |2ba0a2b|
   - sqrt(     1/12    )  |2ba0b2a|
   + sqrt(     1/3     )  |2bb0a2a|
 
           203  2uudd02   0.00002 0.00000
 
   - sqrt(     1/3     )  |2aabb02|
   + sqrt(     1/12    )  |2abab02|
   + sqrt(     1/12    )  |2abba02|
   + sqrt(     1/12    )  |2baab02|
   + sqrt(     1/12    )  |2baba02|
   - sqrt(     1/3     )  |2bbaa02|
 
           204  2uud0d2  -0.00041 0.00000
 
   - sqrt(     1/3     )  |2aab0b2|
   + sqrt(     1/12    )  |2aba0b2|
   + sqrt(     1/12    )  |2abb0a2|
   + sqrt(     1/12    )  |2baa0b2|
   + sqrt(     1/12    )  |2bab0a2|
   - sqrt(     1/3     )  |2bba0a2|
 
           205  2uu0dd2   0.00024 0.00000
 
   - sqrt(     1/3     )  |2aa0bb2|
   + sqrt(     1/12    )  |2ab0ab2|
   + sqrt(     1/12    )  |2ab0ba2|
   + sqrt(     1/12    )  |2ba0ab2|
   + sqrt(     1/12    )  |2ba0ba2|
   - sqrt(     1/3     )  |2bb0aa2|
 
           206  u2u2dd0  -0.00000 0.00000
 
   + sqrt(     1/3     )  |a2a2bb0|
   - sqrt(     1/12    )  |a2b2ab0|
   - sqrt(     1/12    )  |a2b2ba0|
   - sqrt(     1/12    )  |b2a2ab0|
   - sqrt(     1/12    )  |b2a2ba0|
   + sqrt(     1/3     )  |b2b2aa0|
 
           207  u2ud2d0  -0.00000 0.00000
 
   - sqrt(     1/3     )  |a2ab2b0|
   + sqrt(     1/12    )  |a2ba2b0|
   + sqrt(     1/12    )  |a2bb2a0|
   + sqrt(     1/12    )  |b2aa2b0|
   + sqrt(     1/12    )  |b2ab2a0|
   - sqrt(     1/3     )  |b2ba2a0|
 
           208  u2udd20   0.00000 0.00000
 
   + sqrt(     1/3     )  |a2abb20|
   - sqrt(     1/12    )  |a2bab20|
   - sqrt(     1/12    )  |a2bba20|
   - sqrt(     1/12    )  |b2aab20|
   - sqrt(     1/12    )  |b2aba20|
   + sqrt(     1/3     )  |b2baa20|
 
           209  u2u2d0d  -0.01988 0.00040
 
   + sqrt(     1/3     )  |a2a2b0b|
   - sqrt(     1/12    )  |a2b2a0b|
   - sqrt(     1/12    )  |a2b2b0a|
   - sqrt(     1/12    )  |b2a2a0b|
   - sqrt(     1/12    )  |b2a2b0a|
   + sqrt(     1/3     )  |b2b2a0a|
 
           210  u2ud20d  -0.00450 0.00002
 
   - sqrt(     1/3     )  |a2ab20b|
   + sqrt(     1/12    )  |a2ba20b|
   + sqrt(     1/12    )  |a2bb20a|
   + sqrt(     1/12    )  |b2aa20b|
   + sqrt(     1/12    )  |b2ab20a|
   - sqrt(     1/3     )  |b2ba20a|
 
           211  u2uddud   0.00241 0.00001
 
   + sqrt(     1/6     )  |a2abbab|
   - sqrt(     1/6     )  |a2abbba|
   - sqrt(     1/24    )  |a2babab|
   + sqrt(     1/24    )  |a2babba|
   - sqrt(     1/24    )  |a2bbaab|
   + sqrt(     1/24    )  |a2bbaba|
   - sqrt(     1/24    )  |b2aabab|
   + sqrt(     1/24    )  |b2aabba|
   - sqrt(     1/24    )  |b2abaab|
   + sqrt(     1/24    )  |b2ababa|
   + sqrt(     1/6     )  |b2baaab|
   - sqrt(     1/6     )  |b2baaba|
 
           212  u2u20dd   0.02093 0.00044
 
   + sqrt(     1/3     )  |a2a20bb|
   - sqrt(     1/12    )  |a2b20ab|
   - sqrt(     1/12    )  |a2b20ba|
   - sqrt(     1/12    )  |b2a20ab|
   - sqrt(     1/12    )  |b2a20ba|
   + sqrt(     1/3     )  |b2b20aa|
 
           213  u2ududd   0.00162 0.00000
 
   - sqrt(     2/9     )  |a2ababb|
   + sqrt(     1/18    )  |a2abbab|
   + sqrt(     1/18    )  |a2abbba|
   + sqrt(     1/18    )  |a2baabb|
   - sqrt(     1/72    )  |a2babab|
   - sqrt(     1/72    )  |a2babba|
   + sqrt(     1/72    )  |a2bbaab|
   + sqrt(     1/72    )  |a2bbaba|
   - sqrt(     1/18    )  |a2bbbaa|
   + sqrt(     1/18    )  |b2aaabb|
   - sqrt(     1/72    )  |b2aabab|
   - sqrt(     1/72    )  |b2aabba|
   + sqrt(     1/72    )  |b2abaab|
   + sqrt(     1/72    )  |b2ababa|
   - sqrt(     1/18    )  |b2abbaa|
   - sqrt(     1/18    )  |b2baaab|
   - sqrt(     1/18    )  |b2baaba|
   + sqrt(     2/9     )  |b2babaa|
 
           214  u2uuddd   0.00172 0.00000
 
   + sqrt(     1/4     )  |a2aabbb|
   - sqrt(     1/36    )  |a2ababb|
   - sqrt(     1/36    )  |a2abbab|
   - sqrt(     1/36    )  |a2abbba|
   - sqrt(     1/36    )  |a2baabb|
   - sqrt(     1/36    )  |a2babab|
   - sqrt(     1/36    )  |a2babba|
   + sqrt(     1/36    )  |a2bbaab|
   + sqrt(     1/36    )  |a2bbaba|
   + sqrt(     1/36    )  |a2bbbaa|
   - sqrt(     1/36    )  |b2aaabb|
   - sqrt(     1/36    )  |b2aabab|
   - sqrt(     1/36    )  |b2aabba|
   + sqrt(     1/36    )  |b2abaab|
   + sqrt(     1/36    )  |b2ababa|
   + sqrt(     1/36    )  |b2abbaa|
   + sqrt(     1/36    )  |b2baaab|
   + sqrt(     1/36    )  |b2baaba|
   + sqrt(     1/36    )  |b2babaa|
   - sqrt(     1/4     )  |b2bbaaa|
 
           215  u2u02dd  -0.00622 0.00004
 
   + sqrt(     1/3     )  |a2a02bb|
   - sqrt(     1/12    )  |a2b02ab|
   - sqrt(     1/12    )  |a2b02ba|
   - sqrt(     1/12    )  |b2a02ab|
   - sqrt(     1/12    )  |b2a02ba|
   + sqrt(     1/3     )  |b2b02aa|
 
           216  u2ud02d  -0.00091 0.00000
 
   - sqrt(     1/3     )  |a2ab02b|
   + sqrt(     1/12    )  |a2ba02b|
   + sqrt(     1/12    )  |a2bb02a|
   + sqrt(     1/12    )  |b2aa02b|
   + sqrt(     1/12    )  |b2ab02a|
   - sqrt(     1/3     )  |b2ba02a|
 
           217  u2u0d2d  -0.00070 0.00000
 
   - sqrt(     1/3     )  |a2a0b2b|
   + sqrt(     1/12    )  |a2b0a2b|
   + sqrt(     1/12    )  |a2b0b2a|
   + sqrt(     1/12    )  |b2a0a2b|
   + sqrt(     1/12    )  |b2a0b2a|
   - sqrt(     1/3     )  |b2b0a2a|
 
           218  u2udd02   0.00000 0.00000
 
   + sqrt(     1/3     )  |a2abb02|
   - sqrt(     1/12    )  |a2bab02|
   - sqrt(     1/12    )  |a2bba02|
   - sqrt(     1/12    )  |b2aab02|
   - sqrt(     1/12    )  |b2aba02|
   + sqrt(     1/3     )  |b2baa02|
 
           219  u2ud0d2  -0.00000 0.00000
 
   + sqrt(     1/3     )  |a2ab0b2|
   - sqrt(     1/12    )  |a2ba0b2|
   - sqrt(     1/12    )  |a2bb0a2|
   - sqrt(     1/12    )  |b2aa0b2|
   - sqrt(     1/12    )  |b2ab0a2|
   + sqrt(     1/3     )  |b2ba0a2|
 
           220  u2u0dd2   0.00000 0.00000
 
   + sqrt(     1/3     )  |a2a0bb2|
   - sqrt(     1/12    )  |a2b0ab2|
   - sqrt(     1/12    )  |a2b0ba2|
   - sqrt(     1/12    )  |b2a0ab2|
   - sqrt(     1/12    )  |b2a0ba2|
   + sqrt(     1/3     )  |b2b0aa2|
 
           221  uu22dd0   0.00000 0.00000
 
   - sqrt(     1/3     )  |aa22bb0|
   + sqrt(     1/12    )  |ab22ab0|
   + sqrt(     1/12    )  |ab22ba0|
   + sqrt(     1/12    )  |ba22ab0|
   + sqrt(     1/12    )  |ba22ba0|
   - sqrt(     1/3     )  |bb22aa0|
 
           222  uu2d2d0  -0.00000 0.00000
 
   + sqrt(     1/3     )  |aa2b2b0|
   - sqrt(     1/12    )  |ab2a2b0|
   - sqrt(     1/12    )  |ab2b2a0|
   - sqrt(     1/12    )  |ba2a2b0|
   - sqrt(     1/12    )  |ba2b2a0|
   + sqrt(     1/3     )  |bb2a2a0|
 
           223  uu2dd20   0.00000 0.00000
 
   - sqrt(     1/3     )  |aa2bb20|
   + sqrt(     1/12    )  |ab2ab20|
   + sqrt(     1/12    )  |ab2ba20|
   + sqrt(     1/12    )  |ba2ab20|
   + sqrt(     1/12    )  |ba2ba20|
   - sqrt(     1/3     )  |bb2aa20|
 
           224  uu22d0d   0.01554 0.00024
 
   - sqrt(     1/3     )  |aa22b0b|
   + sqrt(     1/12    )  |ab22a0b|
   + sqrt(     1/12    )  |ab22b0a|
   + sqrt(     1/12    )  |ba22a0b|
   + sqrt(     1/12    )  |ba22b0a|
   - sqrt(     1/3     )  |bb22a0a|
 
           225  uu2d20d  -0.00566 0.00003
 
   + sqrt(     1/3     )  |aa2b20b|
   - sqrt(     1/12    )  |ab2a20b|
   - sqrt(     1/12    )  |ab2b20a|
   - sqrt(     1/12    )  |ba2a20b|
   - sqrt(     1/12    )  |ba2b20a|
   + sqrt(     1/3     )  |bb2a20a|
 
           226  uu2ddud   0.00195 0.00000
 
   - sqrt(     1/6     )  |aa2bbab|
   + sqrt(     1/6     )  |aa2bbba|
   + sqrt(     1/24    )  |ab2abab|
   - sqrt(     1/24    )  |ab2abba|
   + sqrt(     1/24    )  |ab2baab|
   - sqrt(     1/24    )  |ab2baba|
   + sqrt(     1/24    )  |ba2abab|
   - sqrt(     1/24    )  |ba2abba|
   + sqrt(     1/24    )  |ba2baab|
   - sqrt(     1/24    )  |ba2baba|
   - sqrt(     1/6     )  |bb2aaab|
   + sqrt(     1/6     )  |bb2aaba|
 
           227  uu220dd  -0.01356 0.00018
 
   - sqrt(     1/3     )  |aa220bb|
   + sqrt(     1/12    )  |ab220ab|
   + sqrt(     1/12    )  |ab220ba|
   + sqrt(     1/12    )  |ba220ab|
   + sqrt(     1/12    )  |ba220ba|
   - sqrt(     1/3     )  |bb220aa|
 
           228  uu2dudd   0.00149 0.00000
 
   + sqrt(     2/9     )  |aa2babb|
   - sqrt(     1/18    )  |aa2bbab|
   - sqrt(     1/18    )  |aa2bbba|
   - sqrt(     1/18    )  |ab2aabb|
   + sqrt(     1/72    )  |ab2abab|
   + sqrt(     1/72    )  |ab2abba|
   - sqrt(     1/72    )  |ab2baab|
   - sqrt(     1/72    )  |ab2baba|
   + sqrt(     1/18    )  |ab2bbaa|
   - sqrt(     1/18    )  |ba2aabb|
   + sqrt(     1/72    )  |ba2abab|
   + sqrt(     1/72    )  |ba2abba|
   - sqrt(     1/72    )  |ba2baab|
   - sqrt(     1/72    )  |ba2baba|
   + sqrt(     1/18    )  |ba2bbaa|
   + sqrt(     1/18    )  |bb2aaab|
   + sqrt(     1/18    )  |bb2aaba|
   - sqrt(     2/9     )  |bb2abaa|
 
           229  uu2uddd  -0.00209 0.00000
 
   - sqrt(     1/4     )  |aa2abbb|
   + sqrt(     1/36    )  |aa2babb|
   + sqrt(     1/36    )  |aa2bbab|
   + sqrt(     1/36    )  |aa2bbba|
   + sqrt(     1/36    )  |ab2aabb|
   + sqrt(     1/36    )  |ab2abab|
   + sqrt(     1/36    )  |ab2abba|
   - sqrt(     1/36    )  |ab2baab|
   - sqrt(     1/36    )  |ab2baba|
   - sqrt(     1/36    )  |ab2bbaa|
   + sqrt(     1/36    )  |ba2aabb|
   + sqrt(     1/36    )  |ba2abab|
   + sqrt(     1/36    )  |ba2abba|
   - sqrt(     1/36    )  |ba2baab|
   - sqrt(     1/36    )  |ba2baba|
   - sqrt(     1/36    )  |ba2bbaa|
   - sqrt(     1/36    )  |bb2aaab|
   - sqrt(     1/36    )  |bb2aaba|
   - sqrt(     1/36    )  |bb2abaa|
   + sqrt(     1/4     )  |bb2baaa|
 
           230  uu202dd   0.00408 0.00002
 
   - sqrt(     1/3     )  |aa202bb|
   + sqrt(     1/12    )  |ab202ab|
   + sqrt(     1/12    )  |ab202ba|
   + sqrt(     1/12    )  |ba202ab|
   + sqrt(     1/12    )  |ba202ba|
   - sqrt(     1/3     )  |bb202aa|
 
           231  uu2d02d  -0.00287 0.00001
 
   + sqrt(     1/3     )  |aa2b02b|
   - sqrt(     1/12    )  |ab2a02b|
   - sqrt(     1/12    )  |ab2b02a|
   - sqrt(     1/12    )  |ba2a02b|
   - sqrt(     1/12    )  |ba2b02a|
   + sqrt(     1/3     )  |bb2a02a|
 
           232  uu20d2d   0.00110 0.00000
 
   + sqrt(     1/3     )  |aa20b2b|
   - sqrt(     1/12    )  |ab20a2b|
   - sqrt(     1/12    )  |ab20b2a|
   - sqrt(     1/12    )  |ba20a2b|
   - sqrt(     1/12    )  |ba20b2a|
   + sqrt(     1/3     )  |bb20a2a|
 
           233  uu2dd02   0.00000 0.00000
 
   - sqrt(     1/3     )  |aa2bb02|
   + sqrt(     1/12    )  |ab2ab02|
   + sqrt(     1/12    )  |ab2ba02|
   + sqrt(     1/12    )  |ba2ab02|
   + sqrt(     1/12    )  |ba2ba02|
   - sqrt(     1/3     )  |bb2aa02|
 
           234  uu2d0d2  -0.00000 0.00000
 
   - sqrt(     1/3     )  |aa2b0b2|
   + sqrt(     1/12    )  |ab2a0b2|
   + sqrt(     1/12    )  |ab2b0a2|
   + sqrt(     1/12    )  |ba2a0b2|
   + sqrt(     1/12    )  |ba2b0a2|
   - sqrt(     1/3     )  |bb2a0a2|
 
           235  uu20dd2  -0.00000 0.00000
 
   - sqrt(     1/3     )  |aa20bb2|
   + sqrt(     1/12    )  |ab20ab2|
   + sqrt(     1/12    )  |ab20ba2|
   + sqrt(     1/12    )  |ba20ab2|
   + sqrt(     1/12    )  |ba20ba2|
   - sqrt(     1/3     )  |bb20aa2|
 
           236  2u022d0  -0.00008 0.00000
 
   + sqrt(     1/2     )  |2a022b0|
   - sqrt(     1/2     )  |2b022a0|
 
           237  2u02d20   0.00874 0.00008
 
   - sqrt(     1/2     )  |2a02b20|
   + sqrt(     1/2     )  |2b02a20|
 
           238  2u0d220   0.00284 0.00001
 
   + sqrt(     1/2     )  |2a0b220|
   - sqrt(     1/2     )  |2b0a220|
 
           239  2u0220d  -0.00000 0.00000
 
   + sqrt(     1/2     )  |2a0220b|
   - sqrt(     1/2     )  |2b0220a|
 
           240  2u02dud  -0.00000 0.00000
 
   - sqrt(     1/4     )  |2a02bab|
   + sqrt(     1/4     )  |2a02bba|
   + sqrt(     1/4     )  |2b02aab|
   - sqrt(     1/4     )  |2b02aba|
 
           241  2u0d2ud  -0.00000 0.00000
 
   + sqrt(     1/4     )  |2a0b2ab|
   - sqrt(     1/4     )  |2a0b2ba|
   - sqrt(     1/4     )  |2b0a2ab|
   + sqrt(     1/4     )  |2b0a2ba|
 
           242  2u02udd   0.00000 0.00000
 
   + sqrt(     1/3     )  |2a02abb|
   - sqrt(     1/12    )  |2a02bab|
   - sqrt(     1/12    )  |2a02bba|
   - sqrt(     1/12    )  |2b02aab|
   - sqrt(     1/12    )  |2b02aba|
   + sqrt(     1/3     )  |2b02baa|
 
           243  2u0u2dd  -0.00000 0.00000
 
   - sqrt(     1/3     )  |2a0a2bb|
   + sqrt(     1/12    )  |2a0b2ab|
   + sqrt(     1/12    )  |2a0b2ba|
   + sqrt(     1/12    )  |2b0a2ab|
   + sqrt(     1/12    )  |2b0a2ba|
   - sqrt(     1/3     )  |2b0b2aa|
 
           244  2u0202d   0.00000 0.00000
 
   + sqrt(     1/2     )  |2a0202b|
   - sqrt(     1/2     )  |2b0202a|
 
           245  2u0du2d   0.00000 0.00000
 
   - sqrt(     1/4     )  |2a0ba2b|
   + sqrt(     1/4     )  |2a0bb2a|
   + sqrt(     1/4     )  |2b0aa2b|
   - sqrt(     1/4     )  |2b0ab2a|
 
           246  2u0ud2d  -0.00000 0.00000
 
   + sqrt(     1/3     )  |2a0ab2b|
   - sqrt(     1/12    )  |2a0ba2b|
   - sqrt(     1/12    )  |2a0bb2a|
   - sqrt(     1/12    )  |2b0aa2b|
   - sqrt(     1/12    )  |2b0ab2a|
   + sqrt(     1/3     )  |2b0ba2a|
 
           247  2u0022d  -0.00000 0.00000
 
   + sqrt(     1/2     )  |2a0022b|
   - sqrt(     1/2     )  |2b0022a|
 
           248  2u02d02  -0.00077 0.00000
 
   - sqrt(     1/2     )  |2a02b02|
   + sqrt(     1/2     )  |2b02a02|
 
           249  2u0d202  -0.00019 0.00000
 
   + sqrt(     1/2     )  |2a0b202|
   - sqrt(     1/2     )  |2b0a202|
 
           250  2u020d2   0.00020 0.00000
 
   - sqrt(     1/2     )  |2a020b2|
   + sqrt(     1/2     )  |2b020a2|
 
           251  2u0dud2   0.00156 0.00000
 
   + sqrt(     1/4     )  |2a0bab2|
   - sqrt(     1/4     )  |2a0bba2|
   - sqrt(     1/4     )  |2b0aab2|
   + sqrt(     1/4     )  |2b0aba2|
 
           252  2u0udd2  -0.00065 0.00000
 
   - sqrt(     1/3     )  |2a0abb2|
   + sqrt(     1/12    )  |2a0bab2|
   + sqrt(     1/12    )  |2a0bba2|
   + sqrt(     1/12    )  |2b0aab2|
   + sqrt(     1/12    )  |2b0aba2|
   - sqrt(     1/3     )  |2b0baa2|
 
           253  2u002d2  -0.00005 0.00000
 
   - sqrt(     1/2     )  |2a002b2|
   + sqrt(     1/2     )  |2b002a2|
 
           254  2u0d022  -0.00028 0.00000
 
   + sqrt(     1/2     )  |2a0b022|
   - sqrt(     1/2     )  |2b0a022|
 
           255  2u00d22   0.00001 0.00000
 
   + sqrt(     1/2     )  |2a00b22|
   - sqrt(     1/2     )  |2b00a22|
 
           256  u2022d0   0.00000 0.00000
 
   - sqrt(     1/2     )  |a2022b0|
   + sqrt(     1/2     )  |b2022a0|
 
           257  u202d20  -0.00000 0.00000
 
   + sqrt(     1/2     )  |a202b20|
   - sqrt(     1/2     )  |b202a20|
 
           258  u20d220   0.00000 0.00000
 
   - sqrt(     1/2     )  |a20b220|
   + sqrt(     1/2     )  |b20a220|
 
           259  u20220d   0.00895 0.00008
 
   - sqrt(     1/2     )  |a20220b|
   + sqrt(     1/2     )  |b20220a|
 
           260  u202dud  -0.00544 0.00003
 
   + sqrt(     1/4     )  |a202bab|
   - sqrt(     1/4     )  |a202bba|
   - sqrt(     1/4     )  |b202aab|
   + sqrt(     1/4     )  |b202aba|
 
           261  u20d2ud   0.00090 0.00000
 
   - sqrt(     1/4     )  |a20b2ab|
   + sqrt(     1/4     )  |a20b2ba|
   + sqrt(     1/4     )  |b20a2ab|
   - sqrt(     1/4     )  |b20a2ba|
 
           262  u202udd  -0.01017 0.00010
 
   - sqrt(     1/3     )  |a202abb|
   + sqrt(     1/12    )  |a202bab|
   + sqrt(     1/12    )  |a202bba|
   + sqrt(     1/12    )  |b202aab|
   + sqrt(     1/12    )  |b202aba|
   - sqrt(     1/3     )  |b202baa|
 
           263  u20u2dd   0.00222 0.00000
 
   + sqrt(     1/3     )  |a20a2bb|
   - sqrt(     1/12    )  |a20b2ab|
   - sqrt(     1/12    )  |a20b2ba|
   - sqrt(     1/12    )  |b20a2ab|
   - sqrt(     1/12    )  |b20a2ba|
   + sqrt(     1/3     )  |b20b2aa|
 
           264  u20202d   0.00357 0.00001
 
   - sqrt(     1/2     )  |a20202b|
   + sqrt(     1/2     )  |b20202a|
 
           265  u20du2d  -0.00276 0.00001
 
   + sqrt(     1/4     )  |a20ba2b|
   - sqrt(     1/4     )  |a20bb2a|
   - sqrt(     1/4     )  |b20aa2b|
   + sqrt(     1/4     )  |b20ab2a|
 
           266  u20ud2d  -0.00265 0.00001
 
   - sqrt(     1/3     )  |a20ab2b|
   + sqrt(     1/12    )  |a20ba2b|
   + sqrt(     1/12    )  |a20bb2a|
   + sqrt(     1/12    )  |b20aa2b|
   + sqrt(     1/12    )  |b20ab2a|
   - sqrt(     1/3     )  |b20ba2a|
 
           267  u20022d  -0.00068 0.00000
 
   - sqrt(     1/2     )  |a20022b|
   + sqrt(     1/2     )  |b20022a|
 
           268  u202d02  -0.00000 0.00000
 
   + sqrt(     1/2     )  |a202b02|
   - sqrt(     1/2     )  |b202a02|
 
           269  u20d202   0.00000 0.00000
 
   - sqrt(     1/2     )  |a20b202|
   + sqrt(     1/2     )  |b20a202|
 
           270  u2020d2   0.00000 0.00000
 
   + sqrt(     1/2     )  |a2020b2|
   - sqrt(     1/2     )  |b2020a2|
 
           271  u20dud2   0.00000 0.00000
 
   - sqrt(     1/4     )  |a20bab2|
   + sqrt(     1/4     )  |a20bba2|
   + sqrt(     1/4     )  |b20aab2|
   - sqrt(     1/4     )  |b20aba2|
 
           272  u20udd2  -0.00000 0.00000
 
   + sqrt(     1/3     )  |a20abb2|
   - sqrt(     1/12    )  |a20bab2|
   - sqrt(     1/12    )  |a20bba2|
   - sqrt(     1/12    )  |b20aab2|
   - sqrt(     1/12    )  |b20aba2|
   + sqrt(     1/3     )  |b20baa2|
 
           273  u2002d2  -0.00000 0.00000
 
   + sqrt(     1/2     )  |a2002b2|
   - sqrt(     1/2     )  |b2002a2|
 
           274  u20d022  -0.00000 0.00000
 
   - sqrt(     1/2     )  |a20b022|
   + sqrt(     1/2     )  |b20a022|
 
           275  u200d22  -0.00000 0.00000
 
   - sqrt(     1/2     )  |a200b22|
   + sqrt(     1/2     )  |b200a22|
 
           276  20u22d0   0.00061 0.00000
 
   + sqrt(     1/2     )  |20a22b0|
   - sqrt(     1/2     )  |20b22a0|
 
           277  20u2d20   0.00725 0.00005
 
   - sqrt(     1/2     )  |20a2b20|
   + sqrt(     1/2     )  |20b2a20|
 
           278  20ud220   0.00186 0.00000
 
   + sqrt(     1/2     )  |20ab220|
   - sqrt(     1/2     )  |20ba220|
 
           279  20u220d   0.00000 0.00000
 
   + sqrt(     1/2     )  |20a220b|
   - sqrt(     1/2     )  |20b220a|
 
           280  20u2dud  -0.00000 0.00000
 
   - sqrt(     1/4     )  |20a2bab|
   + sqrt(     1/4     )  |20a2bba|
   + sqrt(     1/4     )  |20b2aab|
   - sqrt(     1/4     )  |20b2aba|
 
           281  20ud2ud   0.00000 0.00000
 
   + sqrt(     1/4     )  |20ab2ab|
   - sqrt(     1/4     )  |20ab2ba|
   - sqrt(     1/4     )  |20ba2ab|
   + sqrt(     1/4     )  |20ba2ba|
 
           282  20u2udd   0.00000 0.00000
 
   + sqrt(     1/3     )  |20a2abb|
   - sqrt(     1/12    )  |20a2bab|
   - sqrt(     1/12    )  |20a2bba|
   - sqrt(     1/12    )  |20b2aab|
   - sqrt(     1/12    )  |20b2aba|
   + sqrt(     1/3     )  |20b2baa|
 
           283  20uu2dd   0.00000 0.00000
 
   - sqrt(     1/3     )  |20aa2bb|
   + sqrt(     1/12    )  |20ab2ab|
   + sqrt(     1/12    )  |20ab2ba|
   + sqrt(     1/12    )  |20ba2ab|
   + sqrt(     1/12    )  |20ba2ba|
   - sqrt(     1/3     )  |20bb2aa|
 
           284  20u202d   0.00000 0.00000
 
   + sqrt(     1/2     )  |20a202b|
   - sqrt(     1/2     )  |20b202a|
 
           285  20udu2d   0.00000 0.00000
 
   - sqrt(     1/4     )  |20aba2b|
   + sqrt(     1/4     )  |20abb2a|
   + sqrt(     1/4     )  |20baa2b|
   - sqrt(     1/4     )  |20bab2a|
 
           286  20uud2d  -0.00000 0.00000
 
   + sqrt(     1/3     )  |20aab2b|
   - sqrt(     1/12    )  |20aba2b|
   - sqrt(     1/12    )  |20abb2a|
   - sqrt(     1/12    )  |20baa2b|
   - sqrt(     1/12    )  |20bab2a|
   + sqrt(     1/3     )  |20bba2a|
 
           287  20u022d  -0.00000 0.00000
 
   + sqrt(     1/2     )  |20a022b|
   - sqrt(     1/2     )  |20b022a|
 
           288  20u2d02   0.00126 0.00000
 
   - sqrt(     1/2     )  |20a2b02|
   + sqrt(     1/2     )  |20b2a02|
 
           289  20ud202   0.00003 0.00000
 
   + sqrt(     1/2     )  |20ab202|
   - sqrt(     1/2     )  |20ba202|
 
           290  20u20d2   0.00016 0.00000
 
   - sqrt(     1/2     )  |20a20b2|
   + sqrt(     1/2     )  |20b20a2|
 
           291  20udud2  -0.00120 0.00000
 
   + sqrt(     1/4     )  |20abab2|
   - sqrt(     1/4     )  |20abba2|
   - sqrt(     1/4     )  |20baab2|
   + sqrt(     1/4     )  |20baba2|
 
           292  20uudd2   0.00060 0.00000
 
[...]
         283  ( 5:1:   8/   3)   20uu2dd        -0.001577       0.000002
         284  ( 5:1:   9/   3)   20u202d        -0.041324       0.001708
         285  ( 5:1:  10/   3)   20udu2d         0.002815       0.000008
         286  ( 5:1:  11/   3)   20uud2d        -0.003105       0.000010
         287  ( 5:1:  12/   3)   20u022d         0.019498       0.000380
         288  ( 5:1:  13/   3)   20u2d02         0.000000       0.000000
         289  ( 5:1:  14/   3)   20ud202        -0.000000       0.000000
         290  ( 5:1:  15/   3)   20u20d2        -0.000000       0.000000
         291  ( 5:1:  16/   3)   20udud2        -0.000000       0.000000
         292  ( 5:1:  17/   3)   20uudd2         0.000000       0.000000
         293  ( 5:1:  18/   3)   20u02d2         0.000000       0.000000
         294  ( 5:1:  19/   3)   20ud022         0.000000       0.000000
         295  ( 5:1:  20/   3)   20u0d22         0.000000       0.000000
         296  ( 5:1:   1/   4)   udu22d0        -0.000584       0.000000
         297  ( 5:1:   2/   4)   udu2d20        -0.000235       0.000000
         298  ( 5:1:   3/   4)   udud220        -0.000324       0.000000
         299  ( 5:1:   4/   4)   udu220d         0.000000       0.000000
         300  ( 5:1:   5/   4)   udu2dud         0.000000       0.000000
         301  ( 5:1:   6/   4)   udud2ud         0.000000       0.000000
         302  ( 5:1:   7/   4)   udu2udd        -0.000000       0.000000
         303  ( 5:1:   8/   4)   uduu2dd        -0.000000       0.000000
         304  ( 5:1:   9/   4)   udu202d         0.000000       0.000000
         305  ( 5:1:  10/   4)   ududu2d        -0.000000       0.000000
         306  ( 5:1:  11/   4)   uduud2d         0.000000       0.000000
         307  ( 5:1:  12/   4)   udu022d         0.000000       0.000000
         308  ( 5:1:  13/   4)   udu2d02         0.009085       0.000083
         309  ( 5:1:  14/   4)   udud202        -0.006880       0.000047
         310  ( 5:1:  15/   4)   udu20d2        -0.008949       0.000080
         311  ( 5:1:  16/   4)   ududud2        -0.002556       0.000007
         312  ( 5:1:  17/   4)   uduudd2        -0.000346       0.000000
         313  ( 5:1:  18/   4)   udu02d2         0.001694       0.000003
         314  ( 5:1:  19/   4)   udud022         0.003339       0.000011
         315  ( 5:1:  20/   4)   udu0d22         0.000952       0.000001
         316  ( 5:1:   1/   5)   02u22d0        -0.000000       0.000000
         317  ( 5:1:   2/   5)   02u2d20         0.000000       0.000000
         318  ( 5:1:   3/   5)   02ud220        -0.000000       0.000000
         319  ( 5:1:   4/   5)   02u220d        -0.014109       0.000199
         320  ( 5:1:   5/   5)   02u2dud         0.004134       0.000017
         321  ( 5:1:   6/   5)   02ud2ud        -0.002842       0.000008
         322  ( 5:1:   7/   5)   02u2udd         0.005751       0.000033
         323  ( 5:1:   8/   5)   02uu2dd        -0.000028       0.000000
         324  ( 5:1:   9/   5)   02u202d        -0.004204       0.000018
         325  ( 5:1:  10/   5)   02udu2d         0.000636       0.000000
         326  ( 5:1:  11/   5)   02uud2d        -0.001075       0.000001
         327  ( 5:1:  12/   5)   02u022d         0.002085       0.000004
         328  ( 5:1:  13/   5)   02u2d02         0.000000       0.000000
         329  ( 5:1:  14/   5)   02ud202         0.000000       0.000000
         330  ( 5:1:  15/   5)   02u20d2        -0.000000       0.000000
         331  ( 5:1:  16/   5)   02udud2        -0.000000       0.000000
         332  ( 5:1:  17/   5)   02uudd2         0.000000       0.000000
         333  ( 5:1:  18/   5)   02u02d2         0.000000       0.000000
         334  ( 5:1:  19/   5)   02ud022         0.000000       0.000000
         335  ( 5:1:  20/   5)   02u0d22        -0.000000       0.000000
         336  ( 5:1:   1/   6)   uud22d0        -0.001598       0.000003
         337  ( 5:1:   2/   6)   uud2d20        -0.000423       0.000000
         338  ( 5:1:   3/   6)   uudd220         0.001122       0.000001
         339  ( 5:1:   4/   6)   uud220d        -0.000000       0.000000
         340  ( 5:1:   5/   6)   uud2dud        -0.000000       0.000000
         341  ( 5:1:   6/   6)   uudd2ud        -0.000000       0.000000
         342  ( 5:1:   7/   6)   uud2udd         0.000000       0.000000
         343  ( 5:1:   8/   6)   uudu2dd        -0.000000       0.000000
         344  ( 5:1:   9/   6)   uud202d         0.000000       0.000000
         345  ( 5:1:  10/   6)   uuddu2d        -0.000000       0.000000
         346  ( 5:1:  11/   6)   uudud2d         0.000000       0.000000
         347  ( 5:1:  12/   6)   uud022d         0.000000       0.000000
         348  ( 5:1:  13/   6)   uud2d02        -0.012923       0.000167
         349  ( 5:1:  14/   6)   uudd202         0.000445       0.000000
         350  ( 5:1:  15/   6)   uud20d2         0.011715       0.000137
         351  ( 5:1:  16/   6)   uuddud2         0.000148       0.000000
         352  ( 5:1:  17/   6)   uududd2        -0.000998       0.000001
         353  ( 5:1:  18/   6)   uud02d2        -0.002911       0.000008
         354  ( 5:1:  19/   6)   uudd022         0.003285       0.000011
         355  ( 5:1:  20/   6)   uud0d22        -0.001195       0.000001
         356  ( 5:1:   1/   7)   u0222d0        -0.000498       0.000000
         357  ( 5:1:   2/   7)   u022d20        -0.000481       0.000000
         358  ( 5:1:   3/   7)   u02d220         0.000006       0.000000
         359  ( 5:1:   4/   7)   u02220d        -0.000000       0.000000
         360  ( 5:1:   5/   7)   u022dud         0.000000       0.000000
         361  ( 5:1:   6/   7)   u02d2ud         0.000000       0.000000
         362  ( 5:1:   7/   7)   u022udd         0.000000       0.000000
         363  ( 5:1:   8/   7)   u02u2dd        -0.000000       0.000000
         364  ( 5:1:   9/   7)   u02202d         0.000000       0.000000
         365  ( 5:1:  10/   7)   u02du2d        -0.000000       0.000000
         366  ( 5:1:  11/   7)   u02ud2d        -0.000000       0.000000
         367  ( 5:1:  12/   7)   u02022d         0.000000       0.000000
         368  ( 5:1:  13/   7)   u022d02        -0.002221       0.000005
         369  ( 5:1:  14/   7)   u02d202         0.001599       0.000003
         370  ( 5:1:  15/   7)   u0220d2         0.001737       0.000003
         371  ( 5:1:  16/   7)   u02dud2        -0.000617       0.000000
         372  ( 5:1:  17/   7)   u02udd2        -0.001009       0.000001
         373  ( 5:1:  18/   7)   u0202d2        -0.000312       0.000000
         374  ( 5:1:  19/   7)   u02d022         0.001309       0.000002
         375  ( 5:1:  20/   7)   u020d22        -0.000058       0.000000
         376  ( 5:1:   1/   8)   0u222d0        -0.000000       0.000000
         377  ( 5:1:   2/   8)   0u22d20        -0.000000       0.000000
         378  ( 5:1:   3/   8)   0u2d220        -0.000000       0.000000
         379  ( 5:1:   4/   8)   0u2220d        -0.000422       0.000000
         380  ( 5:1:   5/   8)   0u22dud        -0.000095       0.000000
         381  ( 5:1:   6/   8)   0u2d2ud        -0.001751       0.000003
         382  ( 5:1:   7/   8)   0u22udd         0.000151       0.000000
         383  ( 5:1:   8/   8)   0u2u2dd        -0.000645       0.000000
         384  ( 5:1:   9/   8)   0u2202d        -0.000320       0.000000
         385  ( 5:1:  10/   8)   0u2du2d         0.000241       0.000000
         386  ( 5:1:  11/   8)   0u2ud2d         0.000086       0.000000
         387  ( 5:1:  12/   8)   0u2022d         0.000236       0.000000
         388  ( 5:1:  13/   8)   0u22d02        -0.000000       0.000000
         389  ( 5:1:  14/   8)   0u2d202        -0.000000       0.000000
         390  ( 5:1:  15/   8)   0u220d2        -0.000000       0.000000
         391  ( 5:1:  16/   8)   0u2dud2        -0.000000       0.000000
         392  ( 5:1:  17/   8)   0u2udd2         0.000000       0.000000
         393  ( 5:1:  18/   8)   0u202d2        -0.000000       0.000000
         394  ( 5:1:  19/   8)   0u2d022         0.000000       0.000000
         395  ( 5:1:  20/   8)   0u20d22         0.000000       0.000000
         396  ( 6:1:   1/   1)   2002220        -0.000000       0.000000
         397  ( 6:1:   2/   1)   20022ud         0.001884       0.000004
         398  ( 6:1:   3/   1)   2002u2d         0.010923       0.000119
         399  ( 6:1:   4/   1)   200u22d         0.005706       0.000033
         400  ( 6:1:   5/   1)   2002202        -0.000000       0.000000
         401  ( 6:1:   6/   1)   2002ud2         0.000000       0.000000
         402  ( 6:1:   7/   1)   200u2d2         0.000000       0.000000
         403  ( 6:1:   8/   1)   2002022         0.000000       0.000000
         404  ( 6:1:   9/   1)   200ud22         0.000000       0.000000
         405  ( 6:1:  10/   1)   2000222        -0.000000       0.000000
         406  ( 6:1:   1/   2)   ud02220         0.000285       0.000000
         407  ( 6:1:   2/   2)   ud022ud        -0.000000       0.000000
         408  ( 6:1:   3/   2)   ud02u2d         0.000000       0.000000
         409  ( 6:1:   4/   2)   ud0u22d        -0.000000       0.000000
         410  ( 6:1:   5/   2)   ud02202         0.000095       0.000000
         411  ( 6:1:   6/   2)   ud02ud2        -0.000226       0.000000
         412  ( 6:1:   7/   2)   ud0u2d2         0.000326       0.000000
         413  ( 6:1:   8/   2)   ud02022        -0.000726       0.000001
         414  ( 6:1:   9/   2)   ud0ud22         0.000525       0.000000
         415  ( 6:1:  10/   2)   ud00222        -0.000050       0.000000
         416  ( 6:1:   1/   3)   0202220         0.000000       0.000000
         417  ( 6:1:   2/   3)   02022ud        -0.000498       0.000000
         418  ( 6:1:   3/   3)   0202u2d         0.000635       0.000000
         419  ( 6:1:   4/   3)   020u22d         0.000459       0.000000
         420  ( 6:1:   5/   3)   0202202         0.000000       0.000000
         421  ( 6:1:   6/   3)   0202ud2        -0.000000       0.000000
         422  ( 6:1:   7/   3)   020u2d2         0.000000       0.000000
         423  ( 6:1:   8/   3)   0202022         0.000000       0.000000
         424  ( 6:1:   9/   3)   020ud22         0.000000       0.000000
         425  ( 6:1:  10/   3)   0200222        -0.000000       0.000000
         426  ( 6:1:   1/   4)   u0d2220         0.000557       0.000000
         427  ( 6:1:   2/   4)   u0d22ud        -0.000000       0.000000
         428  ( 6:1:   3/   4)   u0d2u2d        -0.000000       0.000000
         429  ( 6:1:   4/   4)   u0du22d         0.000000       0.000000
         430  ( 6:1:   5/   4)   u0d2202         0.001469       0.000002
         431  ( 6:1:   6/   4)   u0d2ud2         0.002062       0.000004
         432  ( 6:1:   7/   4)   u0du2d2        -0.000714       0.000001
         433  ( 6:1:   8/   4)   u0d2022         0.000004       0.000000
         434  ( 6:1:   9/   4)   u0dud22        -0.002362       0.000006
         435  ( 6:1:  10/   4)   u0d0222        -0.000053       0.000000
         436  ( 6:1:   1/   5)   0ud2220         0.000000       0.000000
         437  ( 6:1:   2/   5)   0ud22ud         0.001434       0.000002
         438  ( 6:1:   3/   5)   0ud2u2d        -0.000242       0.000000
         439  ( 6:1:   4/   5)   0udu22d        -0.000291       0.000000
         440  ( 6:1:   5/   5)   0ud2202        -0.000000       0.000000
         441  ( 6:1:   6/   5)   0ud2ud2         0.000000       0.000000
         442  ( 6:1:   7/   5)   0udu2d2        -0.000000       0.000000
         443  ( 6:1:   8/   5)   0ud2022         0.000000       0.000000
         444  ( 6:1:   9/   5)   0udud22        -0.000000       0.000000
         445  ( 6:1:  10/   5)   0ud0222        -0.000000       0.000000
         446  ( 6:1:   1/   6)   0022220         0.000000       0.000000
         447  ( 6:1:   2/   6)   00222ud         0.000122       0.000000
         448  ( 6:1:   3/   6)   0022u2d         0.000328       0.000000
         449  ( 6:1:   4/   6)   002u22d         0.000229       0.000000
         450  ( 6:1:   5/   6)   0022202        -0.000000       0.000000
         451  ( 6:1:   6/   6)   0022ud2        -0.000000       0.000000
         452  ( 6:1:   7/   6)   002u2d2        -0.000000       0.000000
         453  ( 6:1:   8/   6)   0022022         0.000000       0.000000
         454  ( 6:1:   9/   6)   002ud22         0.000000       0.000000
         455  ( 6:1:  10/   6)   0020222         0.000000       0.000000
         456  ( 7:1:   1/   1)   uuu2ddd         0.000000       0.000000
         457  ( 7:1:   2/   1)   uuud2dd        -0.000000       0.000000
         458  ( 7:1:   3/   1)   uuudd2d         0.000000       0.000000
         459  ( 7:1:   4/   1)   uuuddd2        -0.001940       0.000004
         460  ( 8:1:   1/   1)   uu022dd         0.000000       0.000000
         461  ( 8:1:   2/   1)   uu02d2d         0.000000       0.000000
         462  ( 8:1:   3/   1)   uu0d22d        -0.000000       0.000000
         463  ( 8:1:   4/   1)   uu02dd2        -0.000555       0.000000
         464  ( 8:1:   5/   1)   uu0d2d2         0.000475       0.000000
         465  ( 8:1:   6/   1)   uu0dd22         0.001462       0.000002
         466  ( 8:1:   1/   2)   u0u22dd         0.000000       0.000000
         467  ( 8:1:   2/   2)   u0u2d2d        -0.000000       0.000000
         468  ( 8:1:   3/   2)   u0ud22d        -0.000000       0.000000
         469  ( 8:1:   4/   2)   u0u2dd2         0.001557       0.000002
         470  ( 8:1:   5/   2)   u0ud2d2        -0.000266       0.000000
         471  ( 8:1:   6/   2)   u0udd22         0.000576       0.000000
         472  ( 8:1:   1/   3)   0uu22dd         0.000010       0.000000
         473  ( 8:1:   2/   3)   0uu2d2d        -0.000325       0.000000
         474  ( 8:1:   3/   3)   0uud22d         0.000709       0.000001
         475  ( 8:1:   4/   3)   0uu2dd2        -0.000000       0.000000
         476  ( 8:1:   5/   3)   0uud2d2        -0.000000       0.000000
         477  ( 8:1:   6/   3)   0uudd22         0.000000       0.000000
         478  ( 9:1:   1/   1)   u00222d         0.000000       0.000000
         479  ( 9:1:   2/   1)   u0022d2         0.000421       0.000000
         480  ( 9:1:   3/   1)   u002d22         0.000583       0.000000
         481  ( 9:1:   4/   1)   u00d222         0.000304       0.000000
         482  ( 9:1:   1/   2)   0u0222d        -0.000318       0.000000
         483  ( 9:1:   2/   2)   0u022d2        -0.000000       0.000000
         484  ( 9:1:   3/   2)   0u02d22        -0.000000       0.000000
         485  ( 9:1:   4/   2)   0u0d222        -0.000000       0.000000
         486  ( 9:1:   1/   3)   00u222d        -0.000812       0.000001
         487  ( 9:1:   2/   3)   00u22d2        -0.000000       0.000000
         488  ( 9:1:   3/   3)   00u2d22        -0.000000       0.000000
         489  ( 9:1:   4/   3)   00ud222        -0.000000       0.000000
         490  (10:1:   1/   1)   0002222         0.000000       0.000000
 
--
 
++ I/O STATISTICS
 
  I. General I/O information
  - - - - - - - - - - - - - - - - - - - - - - - - - - - - - - - - - - - - - - - - - - -
  Unit  Name          Flsize      Write/Read            MBytes           Write/Read
                      (MBytes)       Calls              In/Out           Time, sec.
  - - - - - - - - - - - - - - - - - - - - - - - - - - - - - - - - - - - - - - - - - - -
   1  RUNFILE          13.42 .     140/    1618 .      1.0/     11.5 .       0/       0
   2  LUSOLV            0.88 .     275/     280 .      9.6/      9.9 .       0/       0
   3  LUSBT             7.39 .     370/    4741 .     32.4/    456.1 .       0/       0
   4  LUHLF1            0.00 .       0/       0 .      0.0/      0.0 .       0/       0
   5  LUHLF2            0.00 .       0/       0 .      0.0/      0.0 .       0/       0
   6  LUHLF3            0.00 .       0/       0 .      0.0/      0.0 .       0/       0
   7  DRARR             6.04 .    1300/    2600 .     30.2/     64.1 .       0/       0
   8  DRARRT            0.00 .       0/       0 .      0.0/      0.0 .       0/       0
   9  RHS_01           10.76 .      65/     481 .     53.8/    397.8 .       0/       0
  10  RHS_02           10.76 .     636/    1727 .    499.8/   1462.2 .       0/       0
  11  RHS_03           10.76 .     766/    1884 .    650.5/   1575.1 .       0/       0
  12  RHS_04           10.76 .    1361/    4191 .   1054.9/   3557.8 .       0/       0
  13  RHS_05           10.76 .    2591/    2877 .   2251.4/   2487.8 .       0/       0
  14  RHS_06           10.76 .     150/     410 .    115.6/    330.9 .       0/       0
  15  H0T_01            0.00 .       0/       0 .      0.0/      0.0 .       0/       0
  16  H0T_02            0.00 .       0/       0 .      0.0/      0.0 .       0/       0
  17  H0T_03            0.00 .       0/       0 .      0.0/      0.0 .       0/       0
  18  H0T_04            0.00 .       0/       0 .      0.0/      0.0 .       0/       0
  19  LUDMAT            0.22 .      55/      40 .      1.3/      1.1 .       0/       0
  20  LUCIEX            0.04 .      30/      95 .      0.1/      0.4 .       0/       0
  21  MOLONE            0.32 .      21/       5 .      1.7/      0.5 .       0/       0
  22  MOLINT            0.00 .       0/       0 .      0.0/      0.0 .       0/       0
  23  JOBIPH            2.45 .       1/      69 .      0.0/      1.5 .       0/       0
  24  CHRED             3.26 .       0/    1432 .      0.0/     35.3 .       0/       0
  25  CHVEC1           22.46 .       0/     650 .      0.0/    224.6 .       0/       0
  26  CHORST            0.02 .       0/      12 .      0.0/      0.0 .       0/       0
  27  CHOMAP            0.00 .       0/       0 .      0.0/      0.0 .       0/       0
  28  ONEINT            2.56 .       0/      45 .      0.0/     13.8 .       0/       0
  29  JOBMIX            2.45 .      40/       0 .      1.3/      0.0 .       0/       0
  - - - - - - - - - - - - - - - - - - - - - - - - - - - - - - - - - - - - - - - - - - -
   *  TOTAL           126.08 .    7801/   23157 .   4703.3/  10630.4 .       1/       2
  - - - - - - - - - - - - - - - - - - - - - - - - - - - - - - - - - - - - - - - - - - -
 
  II. I/O Access Patterns
  - - - - - - - - - - - - - - - - - - - -
  Unit  Name               % of random
                         Write/Read calls
  - - - - - - - - - - - - - - - - - - - -
   1  RUNFILE             28.6/  11.4
   2  LUSOLV              21.5/  23.2
   3  LUSBT               95.7/  79.7
   4  LUHLF1               0.0/   0.0
   5  LUHLF2               0.0/   0.0
   6  LUHLF3               0.0/   0.0
   7  DRARR               74.9/ 100.0
   8  DRARRT               0.0/   0.0
   9  RHS_01              29.2/  30.8
  10  RHS_02              92.8/  29.3
  11  RHS_03              94.0/  30.1
  12  RHS_04              92.2/  27.7
  13  RHS_05              78.9/  27.9
  14  RHS_06              59.3/  18.3
  15  H0T_01               0.0/   0.0
  16  H0T_02               0.0/   0.0
  17  H0T_03               0.0/   0.0
  18  H0T_04               0.0/   0.0
  19  LUDMAT              25.5/  37.5
  20  LUCIEX              83.3/  91.6
  21  MOLONE              47.6/ 100.0
  22  MOLINT               0.0/   0.0
  23  JOBIPH             100.0/  97.1
  24  CHRED                0.0/   1.4
  25  CHVEC1               0.0/   1.4
  26  CHORST               0.0/   0.0
  27  CHOMAP               0.0/   0.0
  28  ONEINT               0.0/  22.2
  29  JOBMIX              97.5/   0.0
  - - - - - - - - - - - - - - - - - - - -
--
--- Stop Module:  caspt2 at Thu Dec 16 08:53:24 2021 /rc=0 ---
--- Module caspt2 spent 20 seconds 
--- Stop Module:  auto at Thu Dec 16 08:53:24 2021 /rc=0 ---
--- Module auto spent 51 seconds 
